/*--------------------------------*- C++ -*----------------------------------*\
  =========                 |
  \\      /  F ield         | OpenFOAM: The Open Source CFD Toolbox
   \\    /   O peration     | Website:  https://openfoam.org
    \\  /    A nd           | Version:  6
     \\/     M anipulation  |
\*---------------------------------------------------------------------------*/
FoamFile
{
    version     2.0;
    format      ascii;
    class       volVectorField;
    location    "10";
    object      grad(p);
}
// * * * * * * * * * * * * * * * * * * * * * * * * * * * * * * * * * * * * * //

dimensions      [0 1 -2 0 0 0 0];

internalField   nonuniform List<vector> 
10000
(
(-144538.16 4.0541074e-13 -11430.286)
(-270275.65 -4.0467846e-13 -6635.4977)
(-237090.63 0 -7795.9745)
(-215905.49 4.0346109e-13 -7576.3259)
(-203390.42 0 -6491.4606)
(-192615.36 0 -5436.495)
(-183395.29 0 -4496.4613)
(-175930.24 4.0150381e-13 -3651.3693)
(-170000.19 0 -2916.2394)
(-165340.15 0 -2301.093)
(-161720.12 0 -1795.9429)
(-158940.09 3.9983302e-13 -1390.7997)
(-156825.07 3.9943609e-13 -1065.666)
(-155220.05 0 -810.54712)
(-154025.04 0 -610.44257)
(-153145.03 0 -455.3529)
(-152495.02 0 -335.2766)
(-152020.02 3.9750104e-13 -245.21456)
(-151685.01 3.9711886e-13 -180.16665)
(-151455.01 0 -130.12687)
(-151295.01 0 -90.092345)
(-151195 0 -65.06995)
(-151130 3.9559473e-13 -40.045051)
(-151090 0 -25.02941)
(-151075 0 -10.012265)
(-151070 0 -5.0063831)
(-151075 0 0)
(-151090 0 0)
(-151105 0 5.0071352)
(-151125 3.929299e-13 5.0073859)
(-151145 0 10.015273)
(-151160 0 10.015775)
(-151175 0 10.016276)
(-151195 0 5.0083891)
(-151215 3.9102414e-13 10.01728)
(-151225 0 10.017782)
(-151235 0 5.0091417)
(-151250 0 5.0093926)
(-151265 0 5.0096436)
(-151270 3.8911642e-13 5.0098945)
(-151280 0 5.0101455)
(-151290 0 5.0103966)
(-151295 0 5.0106476)
(-151305 0 5.0108987)
(-151310 0 5.0111498)
(-151315 0 0)
(-151320 0 5.0116521)
(-151325 0 0)
(-151335 0 0)
(-151335 0 5.0124057)
(-151340 0 0)
(-151345 3.8453181e-13 5.0129082)
(-151345 0 0)
(-151355 0 0)
(-151355 0 5.0136622)
(-151355 0 0)
(-151365 3.826194e-13 0)
(-151365 0 5.0144165)
(-151365 0 0)
(-151375 0 0)
(-151375 0 5.0151709)
(-151375 3.8070581e-13 0)
(-151385 0 0)
(-151385 0 5.0159256)
(-151385 0 0)
(-151390 0 0)
(-151395 0 0)
(-151395 0 5.0169322)
(-151400 3.7802481e-13 0)
(-151405 0 5.0174356)
(-151405 0 0)
(-151410 0 5.0179391)
(-151410 0 5.0181909)
(-151410 3.7610842e-13 5.0184428)
(-151415 0 0)
(-151420 0 0)
(-151425 0 0)
(-151425 0 5.0194504)
(-151425 3.7419088e-13 0)
(-151435 0 0)
(-151435 0 5.0202063)
(-151435 0 0)
(-151440 0 0)
(-151445 3.7227218e-13 0)
(-151450 0 0)
(-151450 0 5.0214668)
(-151450 0 5.0217189)
(-151455 0 0)
(-151460 0 5.0222233)
(-151460 0 5.0224756)
(-151460 3.6958405e-13 5.0227278)
(-151465 0 0)
(-151470 0 0)
(-151475 0 0)
(-151475 0 5.0237371)
(-151475 3.6766257e-13 0)
(-151480 0 0)
(-151485 0 0)
(-151490 0 0)
(-151490 0 5.0249994)
(-151490 3.6573993e-13 0)
(-151495 0 0)
(-151500 0 0)
(-151500 0 0)
(-151505 0 0)
(-151510 0 5.0265148)
(-151510 0 5.0267675)
(-151510 0 5.0270202)
(-151515 0 0)
(-151520 0 0)
(-151520 0 0)
(-151525 0 0)
(-151530 3.6112088e-13 5.0282841)
(-151530 0 5.0285369)
(-151530 0 0)
(-151535 0 0)
(-151540 0 0)
(-151540 3.5919429e-13 0)
(-151545 0 0)
(-151550 0 0)
(-151550 0 0)
(-151555 0 0)
(-151555 3.5726655e-13 5.0308137)
(-151560 0 0)
(-151565 0 5.03132)
(-151565 0 0)
(-151565 0 5.0318263)
(-151570 0 0)
(-151575 0 5.0323327)
(-151575 3.5456575e-13 0)
(-151580 0 0)
(-151585 0 0)
(-151585 0 5.0333459)
(-151585 0 0)
(-151595 3.5263521e-13 0)
(-151595 0 5.0341061)
(-151595 0 0)
(-151600 0 0)
(-151605 0 0)
(-151605 3.507035e-13 5.0351199)
(-151605 0 0)
(-151615 0 0)
(-151615 0 5.0358807)
(-151615 0 0)
(-151620 0 0)
(-151625 0 0)
(-151630 0 5.0368953)
(-151630 0 5.037149)
(-151630 0 5.0374027)
(-151635 0 0)
(-151640 0 5.0379103)
(-151640 3.4606265e-13 5.0381641)
(-151640 0 5.0384179)
(-151645 0 0)
(-151650 0 0)
(-151655 0 0)
(-151655 3.4412697e-13 5.0394336)
(-151655 0 0)
(-151665 0 0)
(-151665 0 5.0401955)
(-151665 0 0)
(-151670 0 0)
(-151675 0 0)
(-151675 0 5.0412119)
(-151675 0 0)
(-151685 0 0)
(-151685 0 5.0419744)
(-151685 0 0)
(-151690 0 0)
(-151695 0 0)
(-151700 0 0)
(-151700 0 5.0432458)
(-151700 0 0)
(-151705 0 0)
(-151710 0 0)
(-151710 0 0)
(-151715 -3.3637254e-13 0)
(-151715 0 5.0447724)
(-151720 0 0)
(-151725 0 5.0452814)
(-151725 0 0)
(-151730 -3.34431e-13 5.0457906)
(-151730 0 5.0460452)
(-151735 0 0)
(-151740 0 5.0465545)
(-151740 0 5.0468091)
(-151740 -3.3248829e-13 5.0470639)
(-151745 0 0)
(-151750 0 0)
(-151750 0 0)
(-151755 3.3093327e-13 0)
(-151760 0 0)
(-151760 0 0)
(-151765 0 0)
(-151770 0 5.0491025)
(-151770 3.2898843e-13 5.0493575)
(-151770 0 5.0496124)
(-151775 0 0)
(-151780 -3.2782097e-13 5.0501225)
(-151780 0 5.0503775)
(-151785 3.2704241e-13 0)
(-151790 -3.2665307e-13 5.0508877)
(-151790 0 5.0511428)
(-151790 -3.2587424e-13 5.051398)
(-151795 0 0)
(-151800 0 0)
(-151800 -3.2470564e-13 0)
(-151805 0 0)
(-151810 -3.2392633e-13 0)
(-151810 0 0)
(-151815 0 0)
(-151820 -3.2275703e-13 5.0534401)
(-151820 3.2236716e-13 5.0536955)
(-151820 0 5.0539509)
(-151825 -3.2158729e-13 0)
(-151830 0 5.0544618)
(-151830 0 5.0547173)
(-151835 3.2041713e-13 0)
(-151835 0 5.0552284)
(-151840 -3.196368e-13 0)
(-151845 0 5.0557395)
(-151845 0 0)
(-151850 3.1846592e-13 0)
(-151850 -3.1807554e-13 0)
(-151855 3.1768511e-13 0)
(-151860 0 0)
(-151860 -3.1690411e-13 5.0572736)
(-151865 0 0)
(-151865 -3.1612291e-13 5.0577852)
(-151865 0 0)
(-151875 0 0)
(-151880 -3.1495076e-13 0)
(-151880 0 5.0588087)
(-151880 -3.1416909e-13 5.0590646)
(-151880 0 0)
(-151885 0 0)
(-151890 -3.1299624e-13 0)
(-151895 0 0)
(-151900 0 0)
(-151900 0 5.0606007)
(-151900 0 5.0608568)
(-151905 0 0)
(-151910 0 5.0613691)
(-151910 0 5.0616253)
(-151910 0 0)
(-151915 0 0)
(-151920 0 0)
(-151925 0 0)
(-151930 -3.0830053e-13 5.0629066)
(-151930 3.0790891e-13 5.063163)
(-151930 0 5.0634193)
(-151930 0 5.0636757)
(-151935 0 0)
(-151940 -3.0634197e-13 0)
(-151945 -3.0595011e-13 0)
(-151950 0 0)
(-151950 0 5.0649581)
(-151950 0 5.0652146)
(-151955 -3.0438221e-13 0)
(-151960 -3.0399012e-13 5.0657278)
(-151960 0 5.0659845)
(-151965 0 0)
(-151965 0 5.0664978)
(-151965 0 0)
(-151975 -3.0202894e-13 0)
(-151980 0 0)
(-151980 0 5.0675248)
(-151980 0 5.0677816)
(-151985 0 0)
(-151985 -3.0006655e-13 5.0682953)
(-151990 0 0)
(-151995 0 5.0688091)
(-151995 0 0)
(-152000 0 0)
(-152000 2.9810298e-13 0)
(-152005 0 0)
(-152010 -2.9731722e-13 0)
(-152010 0 0)
(-152015 0 0)
(-152020 -2.9613821e-13 0)
(-152020 0 5.0711225)
(-152020 -2.9535197e-13 0)
(-152025 0 0)
(-152030 0 0)
(-152030 -2.9417226e-13 0)
(-152035 0 0)
(-152040 -2.9338554e-13 0)
(-152040 0 0)
(-152045 0 0)
(-152045 -2.9220511e-13 5.073438)
(-152050 2.9181154e-13 0)
(-152055 0 5.0739529)
(-152055 0 0)
(-152060 0 5.0744678)
(-152060 -2.9023676e-13 5.0747253)
(-152065 2.8984294e-13 0)
(-152065 0 5.0752404)
(-152070 0 0)
(-152075 -2.8866121e-13 5.0757556)
(-152075 2.8826721e-13 0)
(-152080 2.8787315e-13 0)
(-152080 -2.8747905e-13 0)
(-152085 0 0)
(-152090 -2.866907e-13 0)
(-152090 -2.8629645e-13 0)
(-152095 0 0)
(-152100 -2.8550783e-13 5.0778176)
(-152100 0 5.0780754)
(-152100 -2.84719e-13 5.0783333)
(-152105 -2.8432451e-13 0)
(-152110 0 0)
(-152110 -2.8353539e-13 0)
(-152115 2.8314077e-13 0)
(-152120 0 0)
(-152120 -2.8235137e-13 5.0798811)
(-152125 0 0)
(-152125 0 5.0803973)
(-152125 2.811669e-13 0)
(-152135 0 0)
(-152140 -2.80377e-13 0)
(-152140 -2.7998199e-13 5.0814299)
(-152140 2.7958693e-13 5.0816881)
(-152140 -2.7919181e-13 0)
(-152145 -2.7879667e-13 0)
(-152155 2.7840146e-13 0)
(-152155 -2.780062e-13 5.0827213)
(-152155 -2.7761089e-13 0)
(-152160 2.7721555e-13 5.083238)
(-152160 -2.7682014e-13 0)
(-152165 2.764247e-13 0)
(-152170 -2.760292e-13 0)
(-152170 -2.7563365e-13 0)
(-152175 2.7523806e-13 0)
(-152180 -2.7484243e-13 5.0847889)
(-152180 0 5.0850474)
(-152180 2.74051e-13 5.085306)
(-152185 -2.7365521e-13 0)
(-152190 0 0)
(-152190 2.7286349e-13 0)
(-152195 0 0)
(-152200 -2.7207158e-13 0)
(-152200 2.7167555e-13 0)
(-152205 0 0)
(-152210 2.7088336e-13 5.0873757)
(-152210 0 5.0876345)
(-152210 -2.7009097e-13 5.0878934)
(-152214.5 2.696947e-13 0)
(-152219.5 0 1.5265233)
(-152221.5 -2.6890201e-13 1.526601)
(-152225 2.685056e-13 1.5266787)
(-152228 -2.6810914e-13 1.5267564)
(-152230.5 0 1.5268341)
(-152233.5 2.6731607e-13 1.5269118)
(-152237 -2.6691946e-13 1.5269895)
(-152240 2.665228e-13 2.0360897)
(-152242.5 -2.661261e-13 2.0361933)
(-152245.5 0 1.5272228)
(-152248.5 2.6533255e-13 1.5273005)
(-152251.5 -2.649357e-13 1.5273783)
(-152254.5 -2.645388e-13 1.527456)
(-152257.5 2.6414185e-13 1.5275338)
(-152260.5 0 1.5276116)
(-152263.5 0 1.5276894)
(-152266.5 2.6295072e-13 1.5277672)
(-152269.5 -2.6255358e-13 1.527845)
(-152272.5 -2.6215639e-13 1.5279228)
(-152275.5 2.6175916e-13 1.5280006)
(-152278.5 0 1.5280784)
(-152281.5 2.6096454e-13 1.5281563)
(-152284.5 -2.6056715e-13 1.5282341)
(-152287.5 -2.6016972e-13 1.528312)
(-152290.5 2.5977224e-13 1.5283899)
(-152293 0 2.037957)
(-152296 0 1.5285456)
(-152299.5 2.5857951e-13 1.5286235)
(-152302.5 -2.5818184e-13 1.5287014)
(-152305.5 -2.5778411e-13 1.5287793)
(-152308.5 2.5738634e-13 1.5288572)
(-152311 0 2.0385801)
(-152314 2.5659065e-13 1.529013)
(-152317.5 -2.5619274e-13 1.529091)
(-152320.5 -2.5579477e-13 1.5291689)
(-152323 2.5539675e-13 2.0389958)
(-152326 0 1.5293248)
(-152329.5 -2.5460058e-13 1.5294028)
(-152332 2.5420242e-13 1.5294807)
(-152335 -2.5380421e-13 1.5295587)
(-152338.5 0 1.5296367)
(-152341.5 2.5300764e-13 1.5297147)
(-152344 -2.5260929e-13 2.0397236)
(-152347 0 1.5298707)
(-152350.5 2.5181243e-13 1.5299488)
(-152353 0 2.0400357)
(-152356 2.5101538e-13 1.5301048)
(-152359 -2.5061678e-13 1.5301829)
(-152362 0 1.5302609)
(-152365.5 2.4981944e-13 1.530339)
(-152368 0 1.530417)
(-152371 -2.490219e-13 1.5304951)
(-152374.5 2.4862306e-13 1.5305732)
(-152377 0 2.0408684)
(-152380 -2.4782522e-13 1.5307294)
(-152383 2.4742623e-13 1.5308075)
(-152386 -2.470272e-13 1.5308856)
(-152389.5 2.4662811e-13 1.5309637)
(-152392 0 2.0413892)
(-152395 -2.4582979e-13 1.53112)
(-152398 2.4543056e-13 1.5311982)
(-152401 -2.4503128e-13 1.5312763)
(-152404 -2.4463194e-13 1.5313545)
(-152407 2.4423257e-13 1.5314326)
(-152410.5 -2.4383314e-13 1.5315108)
(-152413 -2.4343366e-13 2.0421187)
(-152416 2.4303413e-13 1.5316672)
(-152419 -2.4263456e-13 1.5317454)
(-152422 -2.4223493e-13 1.5318236)
(-152425 2.4183526e-13 1.5319019)
(-152428 -2.4143554e-13 1.5319801)
(-152431.5 2.4103577e-13 1.5320583)
(-152434 -2.4063595e-13 2.0428487)
(-152437 -2.4023608e-13 1.5322148)
(-152440 2.3983616e-13 2.0430574)
(-152443 -2.3943619e-13 1.5323714)
(-152446 -2.3903617e-13 1.5324496)
(-152449 2.3863611e-13 1.5325279)
(-152452 -2.38236e-13 1.5326062)
(-152455 -2.3783583e-13 1.5326845)
(-152458.5 2.3743562e-13 1.5327628)
(-152461 -2.3703536e-13 2.0437882)
(-152464 2.3663505e-13 1.5329195)
(-152467 -2.3623469e-13 1.5329978)
(-152470 -2.3583428e-13 1.5330761)
(-152473 2.3543383e-13 1.5331545)
(-152476 -2.3503332e-13 1.5332328)
(-152479.5 0 1.5333112)
(-152482 2.3423216e-13 2.0445194)
(-152485 -2.3383151e-13 1.5334679)
(-152488 0 1.5335463)
(-152491 2.3303005e-13 1.5336247)
(-152494.5 0 1.5337031)
(-152497 2.322284e-13 1.5337815)
(-152500 -2.3182751e-13 1.53386)
(-152503.5 0 1.5339384)
(-152506 2.3102556e-13 2.0453558)
(-152509 0 1.5340953)
(-152512.5 -2.3022342e-13 1.5341737)
(-152515 2.2982227e-13 2.0456696)
(-152518 0 1.5343307)
(-152521.5 -2.2901984e-13 1.5344091)
(-152524 2.2861854e-13 2.0459835)
(-152527 -2.282172e-13 1.5345661)
(-152530.5 0 1.5346446)
(-152533 2.2741437e-13 2.0462975)
(-152536 -2.2701288e-13 1.5348016)
(-152539.5 2.2661134e-13 1.5348801)
(-152542.5 -2.2620976e-13 1.5349587)
(-152545 0 2.0467163)
(-152548 2.2540643e-13 1.5351158)
(-152551.5 -2.250047e-13 1.5351943)
(-152554.5 -2.2460291e-13 1.5352729)
(-152557.5 2.2420108e-13 1.5353515)
(-152560 0 2.0472401)
(-152563 0 1.5355086)
(-152566.5 2.2299528e-13 1.5355872)
(-152569.5 -2.2259325e-13 1.5356658)
(-152572.5 2.2219117e-13 1.5357445)
(-152575.5 0 1.5358231)
(-152578.5 0 2.0478689)
(-152581 2.2098463e-13 2.0479738)
(-152584 -2.2058236e-13 1.536059)
(-152587.5 -2.2018003e-13 1.5361376)
(-152590.5 2.1977765e-13 1.5362163)
(-152593.5 0 1.536295)
(-152596.5 0 1.5363736)
(-152599.5 2.1857023e-13 1.5364523)
(-152602.5 -2.1816765e-13 1.536531)
(-152605.5 -2.1776503e-13 1.5366097)
(-152608.5 2.1736236e-13 1.5366884)
(-152611.5 0 1.5367672)
(-152615 2.1655686e-13 1.5368459)
(-152618 -2.1615404e-13 2.0492328)
(-152620.5 -2.1575117e-13 2.0493378)
(-152623.5 2.1534825e-13 1.5370821)
(-152626.5 0 1.5371609)
(-152629.5 -2.1454226e-13 1.5372396)
(-152633 2.1413919e-13 1.5373184)
(-152636 -2.1373607e-13 2.0498629)
(-152638.5 0 1.537476)
(-152641.5 2.1292969e-13 1.5375548)
(-152645 -2.1252642e-13 1.5376336)
(-152648 2.121231e-13 2.0502832)
(-152650.5 -2.1171974e-13 1.5377912)
(-152654 0 1.53787)
(-152657 2.1091286e-13 2.0505985)
(-152659.5 -2.1050934e-13 1.5380277)
(-152663 0 1.5381066)
(-152666 2.0970216e-13 1.5381855)
(-152669 0 1.5382643)
(-152672 -2.0889479e-13 2.0511243)
(-152675 2.0849103e-13 1.5384221)
(-152678 0 2.0513347)
(-152681 -2.0768335e-13 1.5385799)
(-152684 2.0727944e-13 1.5386588)
(-152687 -2.0687548e-13 1.5387377)
(-152690.5 2.0647147e-13 1.5388167)
(-152693 0 2.0518608)
(-152696 -2.056633e-13 1.5389745)
(-152699.5 2.0525914e-13 1.5390535)
(-152702 -2.0485493e-13 1.5391324)
(-152705 -2.0445067e-13 1.5392114)
(-152708.5 2.0404636e-13 1.5392904)
(-152711.5 -2.03642e-13 1.5393694)
(-152714.5 -2.0323759e-13 1.5394484)
(-152717.5 2.0283313e-13 1.5395274)
(-152720.5 -2.0242863e-13 2.0528085)
(-152723.5 2.0202407e-13 2.0529139)
(-152726.5 -2.0161946e-13 2.0530192)
(-152729.5 -2.012148e-13 2.0531246)
(-152732.5 2.008101e-13 2.05323)
(-152735.5 -2.0040534e-13 2.0533354)
(-152738.5 -2.0000053e-13 2.0534408)
(-152741.5 1.9959568e-13 1.5401597)
(-152744.5 -1.9919077e-13 1.5402387)
(-152747.5 -1.9878582e-13 1.5403178)
(-152750.5 1.9838081e-13 1.5403969)
(-152754 -1.9797576e-13 1.540476)
(-152757 -1.9757065e-13 1.5405551)
(-152759.5 1.9716549e-13 1.5406342)
(-152763 -1.9676029e-13 1.5407133)
(-152766 1.9635503e-13 1.5407925)
(-152769 -1.9594973e-13 1.5408716)
(-152772 -1.9554437e-13 2.054601)
(-152775 1.9513897e-13 1.5410299)
(-152778 -1.9473351e-13 2.0548121)
(-152781 0 1.5411883)
(-152784 1.9392245e-13 1.5412674)
(-152787 -1.9351685e-13 1.5413466)
(-152790.5 0 1.5414258)
(-152793 1.9270549e-13 1.541505)
(-152796 0 1.5415842)
(-152799.5 1.9189393e-13 1.5416635)
(-152802.5 -1.9148808e-13 1.5417427)
(-152805.5 0 1.5418219)
(-152808.5 1.9067622e-13 1.5419012)
(-152811.5 0 1.5419804)
(-152814.5 -1.8986416e-13 1.5420597)
(-152817.5 1.8945806e-13 1.5421389)
(-152820.5 0 1.5422182)
(-152823.5 -1.886457e-13 1.5422975)
(-152826.5 1.8823945e-13 1.5423768)
(-152830 -1.8783314e-13 1.5424561)
(-152833 0 2.0567139)
(-152835.5 1.8702038e-13 1.5426147)
(-152838.5 -1.8661393e-13 1.5426941)
(-152842 1.8620742e-13 1.5427734)
(-152845 -1.8580087e-13 1.5428527)
(-152848 0 1.5429321)
(-152851 1.8498761e-13 1.5430114)
(-152854 -1.845809e-13 1.5430908)
(-152857.5 -1.8417415e-13 1.5431702)
(-152860 1.8376734e-13 2.0576661)
(-152863 0 1.543329)
(-152866.5 0 1.5434084)
(-152869.5 1.8254662e-13 1.5434878)
(-152872 -1.8213962e-13 2.0580896)
(-152875 1.8173256e-13 1.5436466)
(-152878.5 0 1.543726)
(-152881.5 0 1.5438055)
(-152884.5 1.8051109e-13 1.5438849)
(-152888 -1.8010384e-13 1.5439644)
(-152891 -1.7969653e-13 2.0587251)
(-152893.5 1.7928917e-13 1.5441233)
(-152896.5 0 1.5442028)
(-152900 0 1.5442823)
(-152903 1.780668e-13 2.0591491)
(-152905.5 -1.7765924e-13 1.5444413)
(-152909 1.7725163e-13 1.5445208)
(-152912 0 1.5446003)
(-152915 0 1.5446799)
(-152918 1.760285e-13 1.5447594)
(-152921 -1.7562069e-13 1.5448389)
(-152924.5 -1.7521283e-13 1.5449185)
(-152927.5 1.7480492e-13 1.5449981)
(-152930.5 0 2.0601035)
(-152933 -1.7398895e-13 2.0602096)
(-152936 1.7358089e-13 1.5452368)
(-152939.5 -1.7317277e-13 1.5453164)
(-152942.5 0 1.545396)
(-152946 1.723564e-13 1.5454756)
(-152949 -1.7194813e-13 2.0607403)
(-152951.5 1.7153982e-13 2.0608465)
(-152954.5 -1.7113145e-13 1.5457145)
(-152957.5 0 1.5457942)
(-152961 1.7031458e-13 1.5458738)
(-152964 -1.6990606e-13 1.5459535)
(-152967 0 1.5460331)
(-152970 1.6908888e-13 1.5461128)
(-152973 0 1.5461925)
(-152976.5 -1.6827149e-13 1.5462722)
(-152979 1.6786272e-13 1.5463519)
(-152982 0 1.5464316)
(-152985.5 1.6704504e-13 1.5465113)
(-152988.5 0 1.5465911)
(-152991.5 -1.6622715e-13 1.5466708)
(-152994.5 1.6581813e-13 1.5467505)
(-152997.5 0 1.5468303)
(-153000.5 -1.6499994e-13 1.54691)
(-153003.5 1.6459077e-13 1.5469898)
(-153007 -1.6418154e-13 1.5470696)
(-153010 -1.6377227e-13 2.0628658)
(-153012.5 1.6336295e-13 1.5472292)
(-153016 -1.6295357e-13 1.547309)
(-153019 -1.6254415e-13 1.5473888)
(-153022 1.6213467e-13 1.5474686)
(-153025 -1.6172515e-13 1.5475484)
(-153028 1.6131557e-13 1.5476283)
(-153031.5 -1.6090594e-13 1.5477081)
(-153034.5 -1.6049626e-13 1.5477879)
(-153037.5 1.6008654e-13 1.5478678)
(-153040.5 -1.5967676e-13 2.0639302)
(-153043.5 -1.5926693e-13 2.0640367)
(-153046.5 1.5885705e-13 2.0641433)
(-153049.5 -1.5844712e-13 2.0642498)
(-153052.5 -1.5803713e-13 1.5482672)
(-153055.5 1.576271e-13 1.5483471)
(-153058.5 -1.5721702e-13 1.5484271)
(-153062 1.5680689e-13 1.548507)
(-153065 -1.563967e-13 1.5485869)
(-153068 -1.5598647e-13 1.5486668)
(-153071 1.5557618e-13 1.5487468)
(-153074 -1.5516584e-13 1.5488268)
(-153077.5 -1.5475545e-13 1.5489067)
(-153080 1.5434502e-13 2.0653156)
(-153083 -1.5393453e-13 1.5490667)
(-153086.5 0 1.5491467)
(-153089.5 1.531134e-13 1.5492267)
(-153092.5 -1.5270276e-13 1.5493067)
(-153095.5 0 1.5493867)
(-153098.5 1.5188132e-13 1.5494667)
(-153101.5 0 1.5495468)
(-153105 1.5105968e-13 1.5496268)
(-153108 0 1.5497069)
(-153110.5 0 1.5497869)
(-153114 0 1.549867)
(-153117.5 -1.4941579e-13 1.549947)
(-153120 0 2.0667028)
(-153123 0 1.5501072)
(-153126.5 0 1.5501873)
(-153129 0 2.0670232)
(-153132 1.4735979e-13 1.5503475)
(-153135.5 0 1.5504277)
(-153138.5 0 1.5505078)
(-153141.5 0 1.5505879)
(-153145 0 1.5506681)
(-153148 1.4530252e-13 2.0676643)
(-153150.5 0 1.5508284)
(-153154 -1.4447925e-13 1.5509086)
(-153157 1.4406754e-13 2.067985)
(-153160 0 1.5510689)
(-153163 0 2.0681989)
(-153166 1.428321e-13 1.5512293)
(-153169.5 -1.4242019e-13 1.5513096)
(-153172 0 2.0685197)
(-153175 0 1.55147)
(-153178.5 0 1.5515503)
(-153182 1.4077202e-13 1.5516305)
(-153185 -1.4035985e-13 2.0689477)
(-153187.5 0 1.551791)
(-153190.5 0 1.5518713)
(-153194 0 1.5519516)
(-153197 0 1.5520319)
(-153200 0 1.5521122)
(-153203 0 1.5521925)
(-153206 -1.3747324e-13 1.5522728)
(-153209.5 1.3706066e-13 1.5523531)
(-153212.5 0 1.5524334)
(-153215.5 0 1.5525138)
(-153218.5 0 1.5525941)
(-153221.5 -1.3540984e-13 1.5526745)
(-153224.5 1.34997e-13 1.5527549)
(-153228 0 1.5528352)
(-153231 0 1.5529156)
(-153234 1.3375819e-13 1.552996)
(-153237 -1.3334515e-13 1.5530764)
(-153240 0 1.5531568)
(-153243.5 1.3251892e-13 1.5532372)
(-153246.5 0 1.5533176)
(-153249.5 1.3169249e-13 2.0711974)
(-153252.5 -1.3127919e-13 2.0713047)
(-153255.5 0 2.0714119)
(-153258.5 1.3045245e-13 1.5536394)
(-153261.5 0 1.5537199)
(-153265 0 1.5538003)
(-153268 0 2.0718411)
(-153271 0 1.5539613)
(-153274 -1.2838469e-13 1.5540418)
(-153277 0 1.5541223)
(-153280.5 0 1.5542028)
(-153283.5 0 1.5542833)
(-153286.5 1.2672956e-13 1.5543639)
(-153289.5 -1.2631565e-13 1.5544444)
(-153292.5 0 1.554525)
(-153295.5 0 1.5546055)
(-153299 0 1.5546861)
(-153302 1.246595e-13 1.5547667)
(-153305 -1.2424533e-13 1.5548472)
(-153308 0 1.5549278)
(-153311 1.2341684e-13 1.5550084)
(-153314.5 0 1.555089)
(-153317.5 0 1.5551696)
(-153320.5 1.2217372e-13 1.5552503)
(-153323.5 0 1.5553309)
(-153326.5 1.2134471e-13 1.5554115)
(-153329.5 0 1.5554922)
(-153333 0 1.5555728)
(-153336 1.2010082e-13 2.0742047)
(-153339 0 1.5557342)
(-153342 -1.192713e-13 2.0744198)
(-153345 0 1.5558955)
(-153348.5 0 1.5559763)
(-153351.5 0 1.556057)
(-153354.5 0 2.0748502)
(-153357.5 -1.1719661e-13 2.0749579)
(-153360.5 0 1.5562991)
(-153363.5 1.1636637e-13 1.5563799)
(-153367 0 1.5564606)
(-153370 0 2.0753885)
(-153373 -1.1512062e-13 1.5566221)
(-153376 0 2.0756039)
(-153379 1.1428986e-13 1.5567837)
(-153382.5 0 1.5568645)
(-153385.5 0 1.5569453)
(-153388.5 1.1304334e-13 1.5570261)
(-153391.5 0 1.5571069)
(-153394.5 -1.1221207e-13 1.5571877)
(-153397.5 1.1179636e-13 1.5572686)
(-153401 0 1.5573494)
(-153404 1.1096477e-13 1.5574302)
(-153407 0 1.5575111)
(-153410.5 -1.1013298e-13 1.557592)
(-153413.5 1.0971701e-13 1.5576728)
(-153416.5 0 2.077005)
(-153419.5 0 2.0771128)
(-153422.5 0 2.0772207)
(-153425.5 -1.080526e-13 1.5579964)
(-153428.5 0 1.5580773)
(-153432 0 1.5581583)
(-153435 0 1.5582392)
(-153438 0 1.5583201)
(-153441.5 1.0597093e-13 1.5584011)
(-153444.5 0 1.558482)
(-153447.5 0 1.558563)
(-153450.5 0 1.558644)
(-153453.5 0 1.558725)
(-153456.5 1.0388796e-13 1.558806)
(-153460 0 1.558887)
(-153463 -1.0305441e-13 1.558968)
(-153466 1.0263756e-13 1.559049)
(-153469.5 0 1.55913)
(-153472 0 2.0789481)
(-153475 1.0138669e-13 1.5592921)
(-153478.5 -1.0096963e-13 1.5593731)
(-153482 1.0055252e-13 1.5594542)
(-153485 0 2.0793803)
(-153487.5 0 1.5596163)
(-153491 9.9300872e-14 1.5596974)
(-153494 -9.8883551e-14 1.5597785)
(-153497 0 1.5598596)
(-153500.5 0 1.5599407)
(-153503.5 0 1.5600218)
(-153506.5 0 1.560103)
(-153509.5 0 1.5601841)
(-153513 0 1.5602652)
(-153516 -9.5960856e-14 2.0804619)
(-153519 9.5543119e-14 1.5604276)
(-153522 0 2.0806783)
(-153525 0 1.5605899)
(-153528.5 0 1.5606711)
(-153531.5 -9.3871654e-14 1.5607523)
(-153534.5 9.3453658e-14 1.5608335)
(-153537.5 0 1.5609147)
(-153540.5 0 1.5609959)
(-153544 9.2199359e-14 1.5610771)
(-153547.5 -9.1781152e-14 1.5611584)
(-153550 0 2.0816528)
(-153553 9.0944588e-14 1.5613209)
(-153556.5 0 1.5614021)
(-153559.5 9.0107813e-14 1.5614834)
(-153562.5 -8.9689348e-14 1.5615647)
(-153566 0 1.561646)
(-153569 8.885226e-14 2.082303)
(-153571.5 0 1.5618086)
(-153575 0 1.5618899)
(-153578.5 0 1.5619712)
(-153581.5 0 1.5620525)
(-153584.5 -8.6758628e-14 1.5621339)
(-153587.5 0 1.5622152)
(-153590.5 0 1.5622966)
(-153594 0 1.5623779)
(-153597 8.5082784e-14 2.0832791)
(-153600 -8.4663692e-14 1.5625407)
(-153603 0 1.5626221)
(-153606 0 1.5627035)
(-153609.5 0 1.5627849)
(-153612.5 8.2986803e-14 1.5628663)
(-153616 -8.256745e-14 1.5629477)
(-153619 0 1.5630292)
(-153622 8.1728585e-14 1.5631106)
(-153625 0 2.084256)
(-153628 0 1.5632735)
(-153631.5 8.0469897e-14 1.563355)
(-153634.5 0 1.5634364)
(-153637.5 7.963051e-14 1.5635179)
(-153640.5 0 1.5635994)
(-153644 0 1.5636809)
(-153647 7.8371037e-14 2.0850166)
(-153650 0 1.5638439)
(-153653.5 -7.7531125e-14 1.5639255)
(-153656 0 2.0853426)
(-153659 0 1.5640885)
(-153663 0 1.5641701)
(-153666 0 2.0856689)
(-153668.5 -7.543043e-14 1.5643332)
(-153672 0 1.5644148)
(-153675.5 0 1.5644964)
(-153678 0 2.0861039)
(-153681 0 1.5646596)
(-153684.5 -7.3328424e-14 1.5647412)
(-153688 0 1.5648228)
(-153691 7.2487254e-14 2.0865392)
(-153693.5 0 1.564986)
(-153697 0 1.5650677)
(-153700.5 7.1225104e-14 1.5651493)
(-153703 0 2.0869747)
(-153706 -7.038341e-14 1.5653127)
(-153710 6.9962483e-14 1.5653944)
(-153713 0 2.0873014)
(-153715.5 6.912047e-14 1.5655577)
(-153719 0 1.5656394)
(-153722 -6.8278248e-14 1.5657211)
(-153725 6.785706e-14 1.5658029)
(-153728.5 0 1.5658846)
(-153731.5 0 1.5659663)
(-153734.5 0 1.5660481)
(-153738 -6.6171775e-14 1.5661298)
(-153741 0 1.5662116)
(-153744 0 1.5662934)
(-153747.5 0 1.5663751)
(-153750.5 0 2.0886092)
(-153753.5 -6.4063982e-14 2.0887183)
(-153756.5 0 2.0888274)
(-153759.5 0 1.5667024)
(-153763 0 1.5667842)
(-153766 0 2.0891547)
(-153769 0 1.5669478)
(-153772.5 0 1.5670297)
(-153775.5 -6.1110858e-14 1.5671116)
(-153778.5 6.0688773e-14 1.5671934)
(-153781.5 0 1.5672753)
(-153785 5.9844444e-14 1.5673572)
(-153788 5.94222e-14 2.0899188)
(-153791 -5.8999903e-14 1.567521)
(-153794.5 5.8577552e-14 1.5676029)
(-153797.5 0 1.5676848)
(-153800.5 5.7732694e-14 1.5677667)
(-153803.5 5.7310186e-14 1.5678487)
(-153807 -5.6887626e-14 1.5679306)
(-153810 0 2.0906834)
(-153813 0 1.5680945)
(-153816.5 5.5619624e-14 1.5681765)
(-153819.5 0 1.5682584)
(-153822.5 0 1.5683404)
(-153825.5 0 1.5684224)
(-153829 0 1.5685044)
(-153832 5.3505232e-14 2.0914486)
(-153835 0 1.5686685)
(-153838.5 0 1.5687505)
(-153841.5 0 1.5688325)
(-153844.5 -5.1812765e-14 1.5689146)
(-153847.5 0 1.5689966)
(-153851 0 1.5690787)
(-153854.5 0 1.5691608)
(-153857 5.011945e-14 2.0923238)
(-153860 -4.969599e-14 1.5693249)
(-153863.5 4.9272475e-14 1.569407)
(-153866.5 4.8848908e-14 1.5694891)
(-153870 0 1.5695712)
(-153873 4.8001613e-14 1.5696534)
(-153876 -4.7577888e-14 1.5697355)
(-153879.5 4.7154108e-14 1.5698176)
(-153882.5 4.6730275e-14 1.5698998)
(-153885.5 0 1.5699819)
(-153888.5 0 1.5700641)
(-153892 0 1.5701463)
(-153895 4.5034414e-14 2.093638)
(-153898 -4.4610316e-14 1.5703107)
(-153901.5 0 1.5703929)
(-153904.5 0 1.5704751)
(-153907.5 0 1.5705573)
(-153910.5 4.2913392e-14 1.5706395)
(-153914 -4.2489029e-14 1.5707217)
(-153917.5 0 1.570804)
(-153920 0 2.094515)
(-153923 0 1.5709685)
(-153926.5 0 1.5710508)
(-153930 -4.0366412e-14 1.571133)
(-153933 0 2.0949538)
(-153936 3.9516991e-14 1.5712976)
(-153939 0 2.0951732)
(-153942 3.866736e-14 1.5714622)
(-153945.5 3.8242463e-14 1.5715446)
(-153949 0 1.5716269)
(-153952 3.7392511e-14 2.0956123)
(-153954.5 0 1.5717916)
(-153958 3.6542347e-14 1.5718739)
(-153961.5 3.6117183e-14 1.5719563)
(-153964.5 0 1.5720387)
(-153967.5 -3.5266698e-14 1.5721211)
(-153970.5 0 1.5722034)
(-153974 3.4416e-14 1.5722858)
(-153977.5 0 1.5723683)
(-153980 0 2.0966009)
(-153983 -3.3139552e-14 1.5725331)
(-153987 0 1.5726155)
(-153990 3.2288319e-14 2.0969306)
(-153992.5 0 1.5727804)
(-153996 0 1.5728629)
(-153999.5 -3.1011069e-14 1.5729453)
(-154002.5 0 1.5730278)
(-154005.5 0 2.0974804)
(-154008.5 0 1.5731928)
(-154012 0 1.5732753)
(-154015 2.8881253e-14 2.0978104)
(-154018 0 1.5734403)
(-154021.45 0 1.5735229)
(-154024.5 2.7602721e-14 1.6785124)
(-154027.7 0 1.6786005)
(-154030.9 2.6750098e-14 1.6786885)
(-154034.05 0 1.6787766)
(-154037.2 0 1.6788647)
(-154040.4 2.5470763e-14 1.6789528)
(-154043.55 0 1.6790408)
(-154046.7 0 1.6266562)
(-154049.9 0 1.6267415)
(-154053.1 0 1.6268269)
(-154056.25 0 1.6793933)
(-154059.45 0 1.6269977)
(-154062.6 0 1.6795696)
(-154065.75 0 1.6271685)
(-154068.95 0 1.6797459)
(-154072.15 0 1.6273393)
(-154075.3 0 1.6799223)
(-154078.45 0 1.6275102)
(-154081.7 0 1.6800987)
(-154084.85 0 1.6801869)
(-154088 0 1.6802751)
(-154091.15 -1.8639495e-14 1.6803634)
(-154094.35 1.8212085e-14 1.6279375)
(-154097.55 0 1.6805399)
(-154100.7 0 1.6806281)
(-154103.9 0 1.6807164)
(-154107.1 -1.6501905e-14 1.6808047)
(-154110.25 1.6074226e-14 1.680893)
(-154113.4 0 1.6809813)
(-154116.6 1.5218706e-14 1.6810696)
(-154119.8 1.4790866e-14 1.6811579)
(-154122.95 -1.4362971e-14 1.6812462)
(-154126.15 0 1.6287929)
(-154129.35 0 1.6814229)
(-154132.5 1.3078966e-14 1.6815113)
(-154135.7 0 1.6815996)
(-154138.85 0 1.681688)
(-154142.05 0 1.6817764)
(-154145.25 0 1.6818648)
(-154148.4 1.0937879e-14 1.6819532)
(-154151.6 0 1.6820416)
(-154154.75 0 1.68213)
(-154157.9 0 1.6822184)
(-154161.15 -9.2240399e-15 1.6297348)
(-154164.3 0 1.6823953)
(-154167.45 0 1.6299061)
(-154170.65 0 1.6825722)
(-154173.75 7.5093385e-15 1.6826607)
(-154176.9 -7.0805285e-15 1.6301633)
(-154180 0 1.630249)
(-154183.05 0 1.5777433)
(-154186.15 0 1.5778263)
(-154189.1 5.3647511e-15 1.5779093)
(-154192 -4.935673e-15 1.4727928)
(-154194.8 4.5065416e-15 1.4202677)
(-154197.45 4.0773577e-15 1.3151319)
(-154199.95 0 1.209985)
(-154202.2 0 1.0522162)
(-154204.3 0 0.84181727)
(-154205.56 2.3601023e-15 0.62087291)
(-154203.62 -1.9306661e-15 0.75245337)
(-154206.59 0 -0.11576815)
(-154261.81 0 -8.6935929)
(-154220.3 0 -12.851617)
(-153289.11 2.1251785e-16 51.81811)
(-139744.98 4.0525849e-13 -28760.719)
(-266642.19 -4.0455632e-13 -23071.73)
(-238032.23 0 -23522.94)
(-214601.92 4.0334629e-13 -21683.795)
(-201251.63 0 -18549.174)
(-190621.36 0 -15479.257)
(-181611.11 0 -12684.122)
(-174350.89 4.0144974e-13 -10213.83)
(-168650.71 0 -8093.4397)
(-164220.55 0 -6338.0106)
(-160810.43 0 -4907.5765)
(-158210.33 3.9981305e-13 -3772.169)
(-156245.25 3.9942092e-13 -2866.7917)
(-154765.19 0 -2156.4556)
(-153670.14 0 -1616.1717)
(-152870.1 0 -1195.9268)
(-152285.07 0 -870.71834)
(-151865.05 3.974977e-13 -630.55173)
(-151570.04 3.9711648e-13 -450.41664)
(-151365.03 0 -315.30742)
(-151230.02 0 -215.2206)
(-151145.01 0 -145.15604)
(-151090.01 3.9559428e-13 -85.095733)
(-151060 0 -50.058819)
(-151055 0 -20.02453)
(-151060 0 0)
(-151070 0 10.013268)
(-151085 0 15.020653)
(-151100 0 25.035676)
(-151120 3.9293004e-13 25.036929)
(-151140 0 25.038183)
(-151160 0 25.039437)
(-151180 0 25.040691)
(-151195 0 20.033556)
(-151210 3.9102428e-13 25.0432)
(-151230 0 20.035563)
(-151240 0 20.036567)
(-151250 0 15.028178)
(-151265 0 15.028931)
(-151270 3.891165e-13 15.029684)
(-151280 0 10.020291)
(-151290 0 15.03119)
(-151295 0 10.021295)
(-151305 0 10.021797)
(-151315 0 10.0223)
(-151315 0 10.022802)
(-151320 0 10.023304)
(-151330 0 5.0119033)
(-151330 0 5.0121545)
(-151335 0 10.024811)
(-151340 0 5.012657)
(-151345 3.8453186e-13 10.025816)
(-151350 0 5.0131595)
(-151350 0 5.0134109)
(-151355 0 10.027324)
(-151360 0 5.0139136)
(-151360 3.8261943e-13 5.014165)
(-151365 0 5.0144165)
(-151370 0 5.0146679)
(-151370 0 5.0149194)
(-151375 0 5.0151709)
(-151380 3.8070583e-13 5.0154224)
(-151380 0 5.015674)
(-151385 0 5.0159256)
(-151390 0 5.0161771)
(-151390 0 5.0164288)
(-151390 0 5.0166805)
(-151395 0 5.0169322)
(-151400 3.7802481e-13 0)
(-151405 0 5.0174356)
(-151405 0 5.0176874)
(-151405 0 5.0179391)
(-151410 0 5.0181909)
(-151415 3.7610845e-13 5.0184428)
(-151420 0 5.0186946)
(-151420 0 5.0189465)
(-151420 0 5.0191984)
(-151425 0 5.0194504)
(-151430 3.7419088e-13 0)
(-151430 0 0)
(-151435 0 5.0202063)
(-151440 0 5.0204584)
(-151440 0 5.0207104)
(-151445 3.7227218e-13 0)
(-151445 0 5.0212146)
(-151445 0 5.0214668)
(-151455 0 5.0217189)
(-151455 0 5.0219711)
(-151455 0 5.0222233)
(-151460 0 5.0224756)