/*--------------------------------*- C++ -*----------------------------------*\
  =========                 |
  \\      /  F ield         | OpenFOAM: The Open Source CFD Toolbox
   \\    /   O peration     | Website:  https://openfoam.org
    \\  /    A nd           | Version:  6
     \\/     M anipulation  |
\*---------------------------------------------------------------------------*/
FoamFile
{
    version     2.0;
    format      ascii;
    class       volScalarField;
    location    "10";
    object      p;
}
// * * * * * * * * * * * * * * * * * * * * * * * * * * * * * * * * * * * * * //

dimensions      [0 2 -2 0 0 0 0];

internalField   nonuniform List<scalar> 
10000
(
15316745
15287837
15262690
15240419
15219509
15199741
15180986
15163062
15145800
15129062
15112732
15096718
15080944
15065353
15049900
15034548
15019271
15004049
14988867
14973712
14958576
14943453
14928337
14913227
14898119
14883012
14867905
14852797
14837687
14822576
14807462
14792347
14777230
14762112
14746991
14731869
14716746
14701622
14686496
14671369
14656242
14641113
14625984
14610854
14595723
14580592
14565460
14550328
14535195
14520061
14504928
14489793
14474659
14459524
14444388
14429253
14414117
14398980
14383844
14368707
14353569
14338432
14323294
14308155
14293017
14277878
14262739
14247599
14232460
14217319
14202179
14187038
14171897
14156756
14141615
14126473
14111331
14096188
14081046
14065903
14050759
14035616
14020472
14005328
13990183
13975038
13959893
13944748
13929602
13914456
13899310
13884164
13869017
13853870
13838722
13823575
13808427
13793279
13778130
13762981
13747832
13732683
13717533
13702383
13687233
13672082
13656931
13641780
13626629
13611477
13596325
13581173
13566020
13550867
13535714
13520561
13505407
13490253
13475099
13459944
13444789
13429634
13414478
13399323
13384166
13369010
13353853
13338697
13323539
13308382
13293224
13278066
13262907
13247749
13232590
13217430
13202271
13187111
13171951
13156790
13141630
13126469
13111307
13096146
13080984
13065822
13050659
13035496
13020333
13005170
12990006
12974842
12959678
12944514
12929349
12914184
12899018
12883853
12868687
12853520
12838354
12823187
12808020
12792852
12777685
12762517
12747348
12732180
12717011
12701842
12686672
12671502
12656332
12641162
12625991
12610820
12595649
12580477
12565306
12550133
12534961
12519788
12504615
12489442
12474268
12459094
12443920
12428746
12413571
12398396
12383221
12368045
12352869
12337693
12322516
12307339
12292162
12276985
12261807
12246629
12231451
12216272
12201093
12185914
12170735
12155555
12140375
12125195
12110014
12094833
12079652
12064470
12049288
12034106
12018924
12003741
11988558
11973375
11958191
11943008
11927823
11912639
11897454
11882269
11867084
11851898
11836712
11821526
11806339
11791153
11775966
11760778
11745590
11730402
11715214
11700026
11684837
11669648
11654458
11639268
11624078
11608888
11593697
11578506
11563315
11548124
11532932
11517740
11502547
11487354
11472161
11456968
11441775
11426581
11411387
11396192
11380997
11365802
11350607
11335411
11320215
11305019
11289822
11274626
11259429
11244231
11229033
11213835
11198637
11183438
11168240
11153040
11137841
11122641
11107441
11092241
11077040
11061839
11046638
11031436
11016234
11001032
10985830
10970627
10955424
10940221
10925017
10909813
10894609
10879404
10864200
10848994
10833789
10818583
10803377
10788171
10772964
10757758
10742550
10727343
10712135
10696927
10681719
10666510
10651301
10636092
10620882
10605672
10590462
10575252
10560041
10544830
10529619
10514407
10499195
10483983
10468770
10453558
10438345
10423131
10407917
10392703
10377489
10362275
10347060
10331844
10316629
10301413
10286197
10270981
10255764
10240547
10225330
10210112
10194894
10179676
10164458
10149239
10134020
10118801
10103581
10088361
10073141
10057920
10042699
10027478
10012257
9997035.1
9981813.1
9966590.8
9951368.1
9936145.2
9920922
9905698.5
9890474.6
9875250.5
9860026.1
9844801.4
9829576.4
9814351.1
9799125.5
9783899.6
9768673.4
9753446.9
9738220.1
9722993
9707765.6
9692537.9
9677309.9
9662081.6
9646853
9631624.1
9616394.9
9601165.5
9585935.7
9570705.6
9555475.2
9540244.5
9525013.5
9509782.3
9494550.7
9479318.8
9464086.6
9448854.2
9433621.4
9418388.3
9403155
9387921.3
9372687.3
9357453
9342218.5
9326983.6
9311748.4
9296513
9281277.2
9266041.2
9250804.8
9235568.1
9220331.2
9205093.9
9189856.3
9174618.5
9159380.3
9144141.9
9128903.1
9113664
9098424.7
9083185
9067945.1
9052704.8
9037464.3
9022223.4
9006982.2
8991740.8
8976499
8961257
8946014.6
8930772
8915529
8900285.7
8885042.2
8869798.3
8854554.2
8839309.7
8824065
8808819.9
8793574.6
8778328.9
8763082.9
8747836.7
8732590.1
8717343.3
8702096.1
8686848.7
8671600.9
8656352.8
8641104.5
8625855.8
8610606.9
8595357.6
8580108
8564858.2
8549608
8534357.5
8519106.8
8503855.7
8488604.3
8473352.7
8458100.7
8442848.4
8427595.9
8412343
8397089.8
8381836.4
8366582.6
8351328.5
8336074.1
8320819.5
8305564.5
8290309.2
8275053.6
8259797.7
8244541.6
8229285.1
8214028.3
8198771.2
8183513.8
8168256.1
8152998.1
8137739.9
8122481.3
8107222.4
8091963.2
8076703.7
8061443.9
8046183.8
8030923.4
8015662.7
8000401.7
7985140.4
7969878.7
7954616.8
7939354.6
7924092.1
7908829.3
7893566.2
7878302.7
7863039
7847775
7832510.7
7817246
7801981.1
7786715.9
7771450.3
7756184.5
7740918.4
7725651.9
7710385.2
7695118.1
7679850.8
7664583.1
7649315.2
7634046.9
7618778.4
7603509.5
7588240.3
7572970.9
7557701.1
7542431
7527160.7
7511890
7496619
7481347.7
7466076.1
7450804.2
7435532
7420259.5
7404986.7
7389713.6
7374440.2
7359166.5
7343892.5
7328618.2
7313343.6
7298068.7
7282793.5
7267517.9
7252242.1
7236966
7221689.5
7206412.8
7191135.7
7175858.4
7160580.7
7145302.8
7130024.5
7114746
7099467.1
7084187.9
7068908.5
7053628.7
7038348.6
7023068.2
7007787.5
6992506.5
6977225.2
6961943.6
6946661.7
6931379.5
6916097
6900814.2
6885531
6870247.6
6854963.9
6839679.9
6824395.5
6809110.9
6793825.9
6778540.7
6763255.1
6747969.2
6732683.1
6717396.6
6702109.8
6686822.7
6671535.4
6656247.7
6640959.7
6625671.4
6610382.8
6595093.8
6579804.6
6564515.1
6549225.3
6533935.1
6518644.7
6503354
6488062.9
6472771.6
6457479.9
6442188
6426895.7
6411603.1
6396310.2
6381017
6365723.6
6350429.8
6335135.7
6319841.3
6304546.5
6289251.5
6273956.2
6258660.6
6243364.7
6228068.4
6212771.9
6197475
6182177.9
6166880.4
6151582.6
6136284.6
6120986.2
6105687.5
6090388.5
6075089.2
6059789.6
6044489.7
6029189.5
6013889
5998588.1
5983287
5967985.6
5952683.8
5937381.8
5922079.4
5906776.8
5891473.8
5876170.5
5860866.9
5845563
5830258.8
5814954.3
5799649.5
5784344.4
5769039
5753733.3
5738427.3
5723120.9
5707814.3
5692507.3
5677200.1
5661892.5
5646584.6
5631276.5
5615968
5600659.2
5585350.1
5570040.7
5554731
5539421
5524110.7
5508800
5493489.1
5478177.9
5462866.3
5447554.4
5432242.3
5416929.8
5401617
5386304
5370990.6
5355676.9
5340362.9
5325048.6
5309733.9
5294419
5279103.8
5263788.2
5248472.4
5233156.2
5217839.8
5202523
5187205.9
5171888.6
5156570.9
5141252.9
5125934.5
5110615.9
5095297
5079977.8
5064658.2
5049338.4
5034018.2
5018697.8
5003377
4988055.9
4972734.5
4957412.8
4942090.8
4926768.5
4911445.9
4896122.9
4880799.7
4865476.1
4850152.3
4834828.1
4819503.6
4804178.8
4788853.7
4773528.3
4758202.6
4742876.6
4727550.3
4712223.6
4696896.7
4681569.4
4666241.9
4650914
4635585.8
4620257.3
4604928.5
4589599.4
4574270
4558940.3
4543610.2
4528279.9
4512949.2
4497618.3
4482287
4466955.4
4451623.5
4436291.3
4420958.8
4405626
4390292.9
4374959.4
4359625.7
4344291.6
4328957.3
4313622.6
4298287.6
4282952.3
4267616.7
4252280.8
4236944.6
4221608.1
4206271.2
4190934.1
4175596.6
4160258.9
4144920.8
4129582.4
4114243.7
4098904.7
4083565.4
4068225.8
4052885.9
4037545.6
4022205.1
4006864.2
3991523
3976181.5
3960839.7
3945497.6
3930155.2
3914812.5
3899469.5
3884126.1
3868782.5
3853438.5
3838094.2
3822749.6
3807404.7
3792059.5
3776714
3761368.2
3746022
3730675.6
3715328.8
3699981.7
3684634.4
3669286.7
3653938.7
3638590.3
3623241.7
3607892.8
3592543.5
3577194
3561844.1
3546493.9
3531143.4
3515792.6
3500441.5
3485090
3469738.3
3454386.2
3439033.9
3423681.2
3408328.2
3392974.9
3377621.3
3362267.4
3346913.2
3331558.6
3316203.7
3300848.6
3285493.1
3270137.3
3254781.2
3239424.8
3224068
3208711
3193353.7
3177996
3162638
3147279.7
3131921.1
3116562.2
3101203
3085843.4
3070483.6
3055123.4
3039763
3024402.2
3009041.1
2993679.7
2978317.9
2962955.9
2947593.5
2932230.9
2916867.9
2901504.6
2886141
2870777.1
2855412.9
2840048.3
2824683.5
2809318.3
2793952.8
2778587.1
2763221
2747854.5
2732487.8
2717120.8
2701753.4
2686385.7
2671017.8
2655649.5
2640280.9
2624911.9
2609542.7
2594173.2
2578803.3
2563433.1
2548062.7
2532691.9
2517320.7
2501949.3
2486577.6
2471205.5
2455833.2
2440460.5
2425087.5
2409714.2
2394340.6
2378966.6
2363592.4
2348217.8
2332842.9
2317467.7
2302092.2
2286716.4
2271340.3
2255963.8
2240587.1
2225210
2209832.6
2194454.9
2179076.9
2163698.6
2148319.9
2132941
2117561.7
2102182.1
2086802.2
2071422
2056041.5
2040660.6
2025279.5
2009898
1994516.2
1979134.1
1963751.7
1948369
1932985.9
1917602.6
1902218.9
1886834.9
1871450.6
1856066
1840681.1
1825295.8
1809910.2
1794524.4
1779138.2
1763751.7
1748364.9
1732977.7
1717590.3
1702202.5
1686814.4
1671426
1656037.3
1640648.3
1625258.9
1609869.3
1594479.3
1579089
1563698.4
1548307.5
1532916.3
1517524.7
1502132.8
1486740.7
1471348.2
1455955.4
1440562.2
1425168.8
1409775
1394381
1378986.6
1363591.9
1348196.8
1332801.5
1317405.9
1302009.9
1286613.6
1271217
1255820.1
1240422.9
1225025.3
1209627.4
1194229.3
1178830.8
1163431.9
1148032.8
1132633.4
1117233.6
1101833.5
1086433.1
1071032.4
1055631.4
1040230
1024828.4
1009426.4
994024.11
978621.5
963218.57
947815.32
932411.76
917007.88
901603.68
886199.17
870794.34
855389.19
839983.72
824577.94
809171.83
793765.42
778358.68
762951.63
747544.25
732136.57
716728.56
701320.23
685911.59
670502.63
655093.36
639683.76
624273.85
608863.62
593453.07
578042.2
562631.02
547219.52
531807.7
516395.56
500983.11
485570.33
470157.24
454743.83
439330.1
423916.06
408501.69
393087.01
377672.01
362256.69
346841.06
331425.11
316008.83
300592.25
285175.34
269758.12
254340.59
238922.74
223504.59
208086.13
192667.36
177248.31
161828.96
146409.35
130989.47
115569.36
100149.03
84728.499
69307.918
53887.775
38466.6
23035.413
7622.5403
15314459
15286510
15261131
15238904
15218211
15198654
15180087
15162332
15145217
15128602
15112373
15096440
15080731
15065191
15049778
15034457
15019204
15004000
14988831
14973686
14958558
14943440
14928329
14913222
14898117
14883011
14867905
14852797
14837688
14822577
14807464
14792349
14777232
14762113
14746993
14731871
14716747
14701623
14686497
14671370
14656243
14641114
14625985
14610855
14595724
14580592
14565461
14550328
14535195
14520062
14504928
14489794
14474659
14459524
14444389
14429253
14414117
14398981
14383844
14368707
14353570
14338432
14323294
14308156
14293017
14277878
14262739
14247600
14232460
14217320
14202179
14187039
14171898
14156757
14141615
14126473
14111331
14096189
14081046
14065903
14050760
14035616
14020472
14005328
13990183
13975039
13959894
13944748
13929603
13914457
13899311
13884164
13869017
13853870
13838723
13823575
13808427
13793279
13778130
13762982
13747832
13732683
13717533
13702383
13687233
13672083
13656932
13641781
13626629
13611477
13596325
13581173
13566021
13550868
13535714
13520561
13505407
13490253
13475099
13459944
13444789
13429634
13414479
13399323
13384167
13369010
13353854
13338697
13323540
13308382
13293224
13278066
13262908
13247749
13232590
13217431
13202271
13187111
13171951
13156791
13141630
13126469
13111308
13096146
13080984
13065822
13050660
13035497
13020334
13005170
12990007
12974843
12959679
12944514
12929349
12914184
12899019
12883853
12868687
12853521
12838354
12823187
12808020
12792853
12777685
12762517
12747349
12732180
12717011
12701842
12686672
12671503
12656332
12641162
12625991
12610820
12595649
12580478
12565306
12550134
12534961
12519789
12504616
12489442
12474269
12459095
12443921
12428746
12413571
12398396
12383221
12368045
12352869
12337693
12322517
12307340
12292163
12276985
12261808
12246630
12231451
12216273
12201094
12185915
12170735
12155555
12140375
12125195
12110014
12094833
12079652
12064471
12049289
12034107
12018924
12003742
11988559
11973375
11958192
11943008
11927824
11912639
11897454
11882269
11867084
11851898
11836713
11821526
11806340
11791153
11775966
11760778
11745591
11730403
11715214
11700026
11684837
11669648
11654458
11639269
11624079
11608888
11593698
11578507
11563315
11548124
11532932
11517740
11502548
11487355
11472162
11456969
11441775
11426581
11411387
11396192
11380998
11365803
11350607
11335412
11320216
11305019
11289823
11274626
11259429
11244231
11229034
11213836
11198637
11183439
11168240
11153041
11137841
11122641
11107441
11092241
11077040
11061839
11046638
11031436
11016235
11001032
10985830
10970627
10955424
10940221
10925017
10909813
10894609
10879405
10864200
10848995
10833789
10818584
10803378
10788171
10772965
10757758
10742551
10727343
10712135
10696927
10681719
10666510
10651301
10636092
10620883
10605673
10590463
10575252
10560041
10544830
10529619
10514407
10499196
10483983
10468771
10453558
10438345
10423131
10407918
10392704
10377489
10362275
10347060
10331845
10316629
10301414
10286197
10270981
10255764
10240547
10225330
10210113
10194895
10179677
10164458
10149239
10134020
10118801
10103581
10088361
10073141
10057921
10042700
10027479
10012257
9997035.4
9981813.4
9966591.1
9951368.4
9936145.5
9920922.3
9905698.8
9890475
9875250.9
9860026.4
9844801.7
9829576.7
9814351.4
9799125.8
9783899.9
9768673.7
9753447.2
9738220.4
9722993.3
9707765.9
9692538.2
9677310.2
9662081.9
9646853.3
9631624.4
9616395.3
9601165.8
9585936
9570705.9
9555475.5
9540244.8
9525013.9
9509782.6
9494551
9479319.1
9464087
9448854.5
9433621.7
9418388.6
9403155.3
9387921.6
9372687.6
9357453.4
9342218.8
9326983.9
9311748.8
9296513.3
9281277.5
9266041.5
9250805.1
9235568.4
9220331.5
9205094.2
9189856.7
9174618.8
9159380.6
9144142.2
9128903.4
9113664.4
9098425
9083185.3
9067945.4
9052705.1
9037464.6
9022223.7
9006982.6
8991741.1
8976499.3
8961257.3
8946014.9
8930772.3
8915529.3
8900286.1
8885042.5
8869798.7
8854554.5
8839310
8824065.3
8808820.2
8793574.9
8778329.2
8763083.3
8747837
8732590.4
8717343.6
8702096.4
8686849
8671601.2
8656353.2
8641104.8
8625856.1
8610607.2
8595357.9
8580108.3
8564858.5
8549608.3
8534357.9
8519107.1
8503856
8488604.7
8473353
8458101
8442848.8
8427596.2
8412343.3
8397090.2
8381836.7
8366582.9
8351328.8
8336074.5
8320819.8
8305564.8
8290309.5
8275053.9
8259798.1
8244541.9
8229285.4
8214028.6
8198771.5
8183514.1
8168256.5
8152998.5
8137740.2
8122481.6
8107222.7
8091963.5
8076704
8061444.2
8046184.1
8030923.7
8015663
8000402
7985140.7
7969879.1
7954617.2
7939354.9
7924092.4
7908829.6
7893566.5
7878303.1
7863039.3
7847775.3
7832511
7817246.4
7801981.4
7786716.2
7771450.7
7756184.8
7740918.7
7725652.2
7710385.5
7695118.5
7679851.1
7664583.5
7649315.5
7634047.2
7618778.7
7603509.8
7588240.7
7572971.2
7557701.4
7542431.3
7527161
7511890.3
7496619.3
7481348
7466076.4
7450804.6
7435532.4
7420259.9
7404987.1
7389714
7374440.6
7359166.9
7343892.8
7328618.5
7313343.9
7298069
7282793.8
7267518.2
7252242.4
7236966.3
7221689.8
7206413.1
7191136.1
7175858.7
7160581.1
7145303.1
7130024.8
7114746.3
7099467.4
7084188.2
7068908.8
7053629
7038348.9
7023068.5
7007787.8
6992506.8
6977225.5
6961943.9
6946662
6931379.8
6916097.3
6900814.5
6885531.4
6870247.9
6854964.2
6839680.2
6824395.8
6809111.2
6793826.2
6778541
6763255.4
6747969.6
6732683.4
6717396.9
6702110.1
6686823.1
6671535.7
6656248
6640960
6625671.7
6610383.1
6595094.2
6579804.9
6564515.4
6549225.6
6533935.5
6518645
6503354.3
6488063.2
6472771.9
6457480.2
6442188.3
6426896
6411603.4
6396310.6
6381017.4
6365723.9
6350430.1
6335136
6319841.6
6304546.9
6289251.9
6273956.5
6258660.9
6243365
6228068.7
6212772.2
6197475.3
6182178.2
6166880.7
6151582.9
6136284.9
6120986.5
6105687.8
6090388.8
6075089.5
6059789.9
6044490
6029189.8
6013889.3
5998588.5
5983287.3
5967985.9
5952684.1
5937382.1
5922079.7
5906777.1
5891474.1
5876170.8
5860867.2
5845563.4
5830259.2
5814954.7
5799649.9
5784344.7
5769039.3
5753733.6
5738427.6
5723121.2
5707814.6
5692507.6
5677200.4
5661892.8
5646585
5631276.8
5615968.3
5600659.5
5585350.4
5570041
5554731.3
5539421.3
5524111
5508800.3
5493489.4
5478178.2
5462866.6
5447554.8
5432242.6
5416930.1
5401617.4
5386304.3
5370990.9
5355677.2
5340363.2
5325048.9
5309734.3
5294419.3
5279104.1
5263788.6
5248472.7
5233156.6
5217840.1
5202523.3
5187206.3
5171888.9
5156571.2
5141253.2
5125934.9
5110616.2
5095297.3
5079978.1
5064658.5
5049338.7
5034018.5
5018698.1
5003377.3
4988056.2
4972734.8
4957413.1
4942091.1
4926768.8
4911446.2
4896123.2
4880800
4865476.4
4850152.6
4834828.4
4819503.9
4804179.2
4788854.1
4773528.7
4758202.9
4742876.9
4727550.6
4712224
4696897
4681569.7
4666242.2
4650914.3
4635586.1
4620257.6
4604928.8
4589599.7
4574270.3
4558940.6
4543610.5
4528280.2
4512949.5
4497618.6
4482287.3
4466955.7
4451623.8
4436291.6
4420959.1
4405626.3
4390293.2
4374959.8
4359626
4344292
4328957.6
4313622.9
4298287.9
4282952.7
4267617.1
4252281.1
4236944.9
4221608.4
4206271.6
4190934.4
4175597
4160259.2
4144921.1
4129582.7
4114244
4098905
4083565.7
4068226.1
4052886.2
4037545.9
4022205.4
4006864.5
3991523.3
3976181.9
3960840.1
3945498
3930155.5
3914812.8
3899469.8
3884126.4
3868782.8
3853438.8
3838094.5
3822749.9
3807405
3792059.8
3776714.3
3761368.5
3746022.3
3730675.9
3715329.1
3699982.1
3684634.7
3669287
3653939
3638590.7
3623242
3607893.1
3592543.8
3577194.3
3561844.4
3546494.2
3531143.7
3515792.9
3500441.8
3485090.4
3469738.6
3454386.6
3439034.2
3423681.5
3408328.5
3392975.2
3377621.6
3362267.7
3346913.5
3331558.9
3316204.1
3300848.9
3285493.4
3270137.6
3254781.5
3239425.1
3224068.4
3208711.3
3193354
3177996.3
3162638.3
3147280
3131921.4
3116562.5
3101203.3
3085843.8
3070483.9
3055123.7
3039763.3
3024402.5
3009041.4
2993680
2978318.2
2962956.2
2947593.9
2932231.2
2916868.2
2901504.9
2886141.3
2870777.4
2855413.2
2840048.7
2824683.8
2809318.6
2793953.2
2778587.4
2763221.3
2747854.9
2732488.1
2717121.1
2701753.7
2686386.1
2671018.1
2655649.8
2640281.2
2624912.3
2609543
2594173.5
2578803.6
2563433.5
2548063
2532692.2
2517321.1
2501949.6
2486577.9
2471205.8
2455833.5
2440460.8
2425087.8
2409714.5
2394340.9
2378966.9
2363592.7
2348218.1
2332843.3
2317468.1
2302092.6
2286716.7
2271340.6
2255964.2
2240587.4
2225210.3
2209832.9
2194455.2
2179077.2
2163698.9
2148320.3
2132941.3
2117562
2102182.4
2086802.5
2071422.3
2056041.8
2040661
2025279.8
2009898.3
1994516.5
1979134.4
1963752
1948369.3
1932986.3
1917602.9
1902219.2
1886835.2
1871450.9
1856066.3
1840681.4
1825296.1
1809910.6
1794524.7
1779138.5
1763752
1748365.2
1732978
1717590.6
1702202.8
1686814.7
1671426.3
1656037.6
1640648.6
1625259.3
1609869.6
1594479.6
1579089.3
1563698.7
1548307.8
1532916.6
1517525
1502133.2
1486741
1471348.5
1455955.7
1440562.6
1425169.1
1409775.4
1394381.3
1378986.9
1363592.2
1348197.2
1332801.8
1317406.2
1302010.2
1286613.9
1271217.3
1255820.4
1240423.2
1225025.6
1209627.8
1194229.6
1178831.1
1163432.3
1148033.1
1132633.7
1117233.9
1101833.8
1086433.5
1071032.7
1055631.7
1040230.4
1024828.7
1009426.7
994024.43
978621.82
963218.89
947815.64
932412.08
917008.2
901604
886199.48
870794.65
855389.5
839984.04
824578.25
809172.15
793765.73
778359
762951.94
747544.57
732136.88
716728.88
701320.55
685911.91
670502.95
655093.67
639684.08
624274.17
608863.94
593453.39
578042.52
562631.34
547219.84
531808.02
516395.88
500983.42
485570.65
470157.56
454744.15
439330.42
423916.38
408502.01
393087.33
377672.33
362257.01
346841.38
331425.42
316009.15
300592.56
285175.66
269758.44
254340.9
238923.05
223504.89
208086.43
192667.66
177248.59
161829.23
146409.6
130989.7
115569.56
100149.19
84728.617
69308.061
53887.753
38464.948
23032.971
7632.386
15310993
15283223
15257986
15236083
15215800
15196646
15178450
15161020
15144182
15127795
15111751
15095964
15080371
15064922
15049577
15034309
15019097
15003923
14988777
14973649
14958533
14943424
14928320
14913217
14898115
14883012
14867907
14852800
14837692
14822581
14807467
14792352
14777235
14762116
14746996
14731873
14716750
14701625
14686499
14671372
14656244
14641116
14625986
14610856
14595725
14580594
14565462
14550329
14535196
14520063
14504929
14489795
14474660
14459525
14444390
14429254
14414118
14398981
14383845
14368708
14353570
14338433
14323295
14308156
14293018
14277879
14262740
14247600
14232460
14217320
14202180
14187039
14171898
14156757
14141616
14126474
14111332
14096189
14081046
14065903
14050760
14035617
14020473
14005328
13990184
13975039
13959894
13944749
13929603
13914457
13899311
13884165
13869018
13853871
13838723
13823576
13808428
13793279
13778131
13762982
13747833
13732684
13717534
13702384
13687234
13672083
13656932
13641781
13626630
13611478
13596326
13581174
13566021
13550868
13535715
13520562
13505408
13490254
13475099
13459945
13444790
13429635
13414479
13399323
13384167
13369011
13353854
13338697
13323540
13308383
13293225
13278067
13262908
13247750
13232591
13217431
13202272
13187112
13171952
13156791
13141631
13126470
13111308
13096147
13080985
13065823
13050660
13035497
13020334
13005171
12990007
12974843
12959679
12944515
12929350
12914185
12899019
12883854
12868688
12853521
12838355
12823188
12808021
12792853
12777686
12762517
12747349
12732181
12717012
12701842
12686673
12671503
12656333
12641163
12625992
12610821
12595650
12580478
12565306
12550134
12534962
12519789
12504616
12489443
12474269
12459095
12443921
12428747
12413572
12398397
12383221
12368046
12352870
12337694
12322517
12307340
12292163
12276986
12261808
12246630
12231452
12216273
12201094
12185915
12170736
12155556
12140376
12125196
12110015
12094834
12079653
12064471
12049289
12034107
12018925
12003742
11988559
11973376
11958192
11943008
11927824
11912640
11897455
11882270
11867085
11851899
11836713
11821527
11806340
11791154
11775966
11760779
11745591
11730403
11715215
11700026
11684838
11669648
11654459
11639269
11624079
11608889
11593698
11578507
11563316
11548124
11532933
11517740
11502548
11487355
11472162
11456969
11441775
11426582
11411387
11396193
11380998
11365803
11350608
11335412
11320216
11305020
11289823
11274627
11259429
11244232
11229034
11213836
11198638
11183439
11168240
11153041
11137842
11122642
11107442
11092242
11077041
11061840
11046639
11031437
11016235
11001033
10985831
10970628
10955425
10940222
10925018
10909814
10894610
10879405
10864200
10848995
10833790
10818584
10803378
10788172
10772965
10757758
10742551
10727344
10712136
10696928
10681720
10666511
10651302
10636093
10620883
10605673
10590463
10575253
10560042
10544831
10529620
10514408
10499196
10483984
10468771
10453559
10438345
10423132
10407918
10392704
10377490
10362275
10347061
10331845
10316630
10301414
10286198
10270982
10255765
10240548
10225331
10210113
10194895
10179677
10164459
10149240
10134021
10118802
10103582
10088362
10073142
10057921
10042700
10027479
10012258
9997036
9981814
9966591.6
9951369
9936146.1
9920922.9
9905699.4
9890475.5
9875251.4
9860027
9844802.3
9829577.3
9814352
9799126.4
9783900.5
9768674.3
9753447.8
9738221
9722993.9
9707766.5
9692538.8
9677310.8
9662082.5
9646853.9
9631625
9616395.8
9601166.3
9585936.6
9570706.5
9555476.1
9540245.4
9525014.4
9509783.2
9494551.6
9479319.7
9464087.5
9448855.1
9433622.3
9418389.2
9403155.8
9387922.2
9372688.2
9357453.9
9342219.4
9326984.5
9311749.3
9296513.9
9281278.1
9266042
9250805.7
9235569
9220332
9205094.8
9189857.2
9174619.4
9159381.2
9144142.7
9128904
9113664.9
9098425.6
9083185.9
9067946
9052705.7
9037465.1
9022224.3
9006983.1
8991741.7
8976499.9
8961257.9
8946015.5
8930772.8
8915529.9
8900286.6
8885043.1
8869799.2
8854555.1
8839310.6
8824065.9
8808820.8
8793575.4
8778329.8
8763083.8
8747837.6
8732591
8717344.2
8702097
8686849.5
8671601.8
8656353.7
8641105.4
8625856.7
8610607.7
8595358.5
8580108.9
8564859.1
8549608.9
8534358.4
8519107.7
8503856.6
8488605.2
8473353.6
8458101.6
8442849.3
8427596.8
8412343.9
8397090.7
8381837.2
8366583.5
8351329.4
8336075
8320820.4
8305565.4
8290310.1
8275054.5
8259798.6
8244542.5
8229286
8214029.2
8198772.1
8183514.7
8168257
8152999
8137740.7
8122482.1
8107223.3
8091964.1
8076704.6
8061444.8
8046184.7
8030924.3
8015663.6
8000402.5
7985141.2
7969879.6
7954617.7
7939355.5
7924093
7908830.2
7893567.1
7878303.6
7863039.9
7847775.9
7832511.6
7817246.9
7801982
7786716.8
7771451.2
7756185.4
7740919.3
7725652.8
7710386.1
7695119
7679851.7
7664584
7649316.1
7634047.8
7618779.2
7603510.4
7588241.2
7572971.8
7557702
7542431.9
7527161.5
7511890.9
7496619.9
7481348.6
7466077
7450805.1
7435532.9
7420260.4
7404987.6
7389714.5
7374441.1
7359167.4
7343893.4
7328619.1
7313344.5
7298069.6
7282794.3
7267518.8
7252243
7236966.8
7221690.4
7206413.7
7191136.6
7175859.3
7160581.6
7145303.7
7130025.4
7114746.8
7099468
7084188.8
7068909.3
7053629.6
7038349.5
7023069.1
7007788.4
6992507.4
6977226.1
6961944.5
6946662.6
6931380.4
6916097.9
6900815.1
6885531.9
6870248.5
6854964.8
6839680.7
6824396.4
6809111.8
6793826.8
6778541.5
6763256
6747970.1
6732684
6717397.5
6702110.7
6686823.6
6671536.2
6656248.5
6640960.5
6625672.2
6610383.6
6595094.7
6579805.5
6564516
6549226.2
6533936
6518645.6
6503354.9
6488063.8
6472772.5
6457480.8
6442188.8
6426896.6
6411604
6396311.1
6381017.9
6365724.4
6350430.7
6335136.6
6319842.1
6304547.4
6289252.4
6273957.1
6258661.5
6243365.5
6228069.3
6212772.8
6197475.9
6182178.7
6166881.3
6151583.5
6136285.4
6120987.1
6105688.4
6090389.4
6075090.1
6059790.5
6044490.6
6029190.4
6013889.8
5998589
5983287.9
5967986.5
5952684.7
5937382.7
5922080.3
5906777.6
5891474.7
5876171.4
5860867.8
5845563.9
5830259.7
5814955.2
5799650.4
5784345.3
5769039.9
5753734.2
5738428.1
5723121.8
5707815.2
5692508.2
5677201
5661893.4
5646585.5
5631277.4
5615968.9
5600660.1
5585351
5570041.6
5554731.9
5539421.9
5524111.5
5508800.9
5493490
5478178.7
5462867.2
5447555.3
5432243.2
5416930.7
5401617.9
5386304.8
5370991.5
5355677.8
5340363.8
5325049.4
5309734.8
5294419.9
5279104.7
5263789.1
5248473.3
5233157.1
5217840.7
5202523.9
5187206.8
5171889.4
5156571.7
5141253.7
5125935.4
5110616.8
5095297.9
5079978.7
5064659.1
5049339.3
5034019.1
5018698.6
5003377.9
4988056.8
4972735.4
4957413.7
4942091.7
4926769.4
4911446.7
4896123.8
4880800.6
4865477
4850153.2
4834829
4819504.5
4804179.7
4788854.6
4773529.2
4758203.5
4742877.5
4727551.2
4712224.5
4696897.6
4681570.3
4666242.8
4650914.9
4635586.7
4620258.2
4604929.4
4589600.3
4574270.9
4558941.1
4543611.1
4528280.8
4512950.1
4497619.2
4482287.9
4466956.3
4451624.4
4436292.2
4420959.7
4405626.9
4390293.8
4374960.3
4359626.6
4344292.5
4328958.2
4313623.5
4298288.5
4282953.2
4267617.6
4252281.7
4236945.5
4221609
4206272.1
4190935
4175597.5
4160259.8
4144921.7
4129583.3
4114244.6
4098905.6
4083566.3
4068226.7
4052886.7
4037546.5
4022205.9
4006865.1
3991523.9
3976182.4
3960840.6
3945498.5
3930156.1
3914813.4
3899470.3
3884127
3868783.3
3853439.4
3838095.1
3822750.5
3807405.6
3792060.4
3776714.9
3761369.1
3746022.9
3730676.5
3715329.7
3699982.6
3684635.2
3669287.5
3653939.5
3638591.2
3623242.6
3607893.7
3592544.4
3577194.8
3561845
3546494.8
3531144.3
3515793.5
3500442.4
3485090.9
3469739.2
3454387.1
3439034.8
3423682.1
3408329.1
3392975.8
3377622.2
3362268.3
3346914
3331559.5
3316204.6
3300849.5
3285494
3270138.2
3254782.1
3239425.7
3224068.9
3208711.9
3193354.5
3177996.9
3162638.9
3147280.6
3131922
3116563.1
3101203.9
3085844.3
3070484.5
3055124.3
3039763.8
3024403
3009041.9
2993680.5
2978318.8
2962956.8
2947594.4
2932231.8
2916868.8
2901505.5
2886141.9
2870778
2855413.8
2840049.2
2824684.4
2809319.2
2793953.7
2778587.9
2763221.8
2747855.4
2732488.7
2717121.7
2701754.3
2686386.6
2671018.7
2655650.4
2640281.8
2624912.8
2609543.6
2594174.1
2578804.2
2563434
2548063.5
2532692.7
2517321.6
2501950.2
2486578.5
2471206.4
2455834
2440461.4
2425088.4
2409715.1
2394341.4
2378967.5
2363593.3
2348218.7
2332843.8
2317468.6
2302093.1
2286717.3
2271341.2
2255964.7
2240588
2225210.9
2209833.5
2194455.8
2179077.8
2163699.5
2148320.8
2132941.9
2117562.6
2102183
2086803.1
2071422.9
2056042.4
2040661.5
2025280.4
2009898.9
1994517.1
1979135
1963752.6
1948369.9
1932986.8
1917603.5
1902219.8
1886835.8
1871451.5
1856066.9
1840681.9
1825296.7
1809911.1
1794525.3
1779139.1
1763752.6
1748365.7
1732978.6
1717591.2
1702203.4
1686815.3
1671426.9
1656038.2
1640649.2
1625259.8
1609870.2
1594480.2
1579089.9
1563699.3
1548308.4
1532917.1
1517525.6
1502133.7
1486741.6
1471349.1
1455956.2
1440563.1
1425169.7
1409775.9
1394381.8
1378987.5
1363592.8
1348197.7
1332802.4
1317406.7
1302010.8
1286614.5
1271217.9
1255821
1240423.7
1225026.2
1209628.3
1194230.1
1178831.6
1163432.8
1148033.7
1132634.3
1117234.5
1101834.4
1086434
1071033.3
1055632.3
1040230.9
1024829.3
1009427.3
994025
978622.39
963219.46
947816.21
932412.65
917008.77
901604.57
886200.05
870795.22
855390.07
839984.61
824578.82
809172.72
793766.3
778359.57
762952.51
747545.14
732137.45
716729.44
701321.12
685912.48
670503.52
655094.24
639684.65
624274.74
608864.5
593453.96
578043.09
562631.91
547220.41
531808.59
516396.45
500983.99
485571.22
470158.13
454744.72
439330.99
423916.95
408502.58
393087.9
377672.9
362257.58
346841.95
331425.99
316009.72
300593.13
285176.22
269759
254341.46
238923.61
223505.44
208086.97
192668.18
177249.1
161829.73
146410.06
130990.13
115569.94
100149.5
84728.855
69308.23
53887.779
38464.418
23032.227
7634.7248
15305551
15277916
15253055
15231754
15212140
15193633
15176020
15159092
15142673
15126627
15110856
15095285
15079860
15064540
15049295
15034103
15018948
15003817
14988703
14973598
14958500
14943404
14928309
14913212
14898114
14883014
14867911
14852806
14837697
14822586
14807473
14792358
14777240
14762121
14747000
14731878
14716754
14701629
14686502
14671375
14656247
14641118
14625988
14610858
14595727
14580595
14565463
14550331
14535197
14520064
14504930
14489796
14474661
14459526
14444391
14429255
14414119
14398982
14383846
14368709
14353571
14338434
14323296
14308157
14293019
14277880
14262741
14247601
14232461
14217321
14202181
14187040
14171899
14156758
14141616
14126475
14111332
14096190
14081047
14065904
14050761
14035617
14020473