/*--------------------------------*- C++ -*----------------------------------*\
  =========                 |
  \\      /  F ield         | OpenFOAM: The Open Source CFD Toolbox
   \\    /   O peration     | Website:  https://openfoam.org
    \\  /    A nd           | Version:  6
     \\/     M anipulation  |
\*---------------------------------------------------------------------------*/
FoamFile
{
    version     2.0;
    format      ascii;
    class       volVectorField;
    location    "10";
    object      U;
}
// * * * * * * * * * * * * * * * * * * * * * * * * * * * * * * * * * * * * * //

dimensions      [0 1 -1 0 0 0 0];

internalField   nonuniform List<vector> 
10000
(
(0.99465909 -6.0809549e-21 0.0019033785)
(0.99025352 7.1406902e-21 0.004620254)
(0.97882121 0 0.0065827429)
(0.96404513 -7.1182876e-21 0.0077652518)
(0.94775808 0 0.0082976092)
(0.93100463 0 0.008348711)
(0.91455636 0 0.0080654035)
(0.8989452 -7.0819214e-21 0.0075674098)
(0.88448984 0 0.0069478273)
(0.87134941 0 0.0062747746)
(0.85957191 0 0.0055952577)
(0.84913148 -7.0506247e-21 0.004939816)
(0.83995632 -7.0431693e-21 0.0043268111)
(0.83194868 0 0.0037659676)
(0.82499885 0 0.0032611209)
(0.81899426 0 0.0028122589)
(0.81382545 0 0.0024169847)
(0.80938947 -7.0067786e-21 0.0020715355)
(0.80559178 -6.9995883e-21 0.0017714727)
(0.80234703 0 0.0015121341)
(0.79957914 0 0.0012889209)
(0.79722095 0 0.0010974696)
(0.79521364 -6.9709167e-21 0.00093374712)
(0.79350602 0 0.00079409419)
(0.79205377 0 0.0006752362)
(0.79081866 0 0.00057427341)
(0.78976785 0 0.00048865911)
(0.78887323 0 0.00041617143)
(0.78811075 0 0.00035488233)
(0.78745996 -6.9208162e-21 0.00030312626)
(0.78690344 0 0.00025946984)
(0.78642638 0 0.0002226835)
(0.78601628 0 0.00019171543)
(0.78566251 0 0.0001656681)
(0.7853561 -6.8850154e-21 0.00014377723)
(0.7850895 0 0.00012539329)
(0.78485631 0 0.00010996518)
(0.78465115 0 9.7026049e-05)
(0.7844695 0 8.6180939e-05)
(0.78430754 -6.8492018e-21 7.7096156e-05)
(0.78416209 0 6.9490078e-05)
(0.78403043 0 6.3125275e-05)
(0.78391033 0 5.7801771e-05)
(0.78379989 0 5.3351281e-05)
(0.78369753 0 4.9632303e-05)
(0.78360191 0 4.6525949e-05)
(0.78351192 0 4.3932392e-05)
(0.78342664 0 4.1767873e-05)
(0.78334528 0 3.996215e-05)
(0.78326719 0 3.8456352e-05)
(0.78319183 0 3.7201164e-05)
(0.78311874 -6.7632298e-21 3.6155295e-05)
(0.78304754 0 3.5284188e-05)
(0.78297792 0 3.4558936e-05)
(0.78290962 0 3.3955366e-05)
(0.7828424 0 3.3453272e-05)
(0.78277609 -6.7274069e-21 3.303577e-05)
(0.78271053 0 3.2688758e-05)
(0.7826456 0 3.2400461e-05)
(0.78258119 0 3.2161048e-05)
(0.78251721 0 3.1962317e-05)
(0.78245358 -6.6915848e-21 3.1797427e-05)
(0.78239025 0 3.166067e-05)
(0.78232717 0 3.154729e-05)
(0.78226428 0 3.1453323e-05)
(0.78220157 0 3.1375466e-05)
(0.78213899 0 3.1310968e-05)
(0.78207652 0 3.1257541e-05)
(0.78201415 -6.641436e-21 3.1213278e-05)
(0.78195186 0 3.1176595e-05)
(0.78188963 0 3.1146174e-05)
(0.78182745 0 3.1120922e-05)
(0.78176531 0 3.1099928e-05)
(0.78170321 -6.6056169e-21 3.1082439e-05)
(0.78164114 0 3.1067829e-05)
(0.78157909 0 3.1055579e-05)
(0.78151706 0 3.1045262e-05)
(0.78145505 0 3.103652e-05)
(0.78139305 -6.5697993e-21 3.1029063e-05)
(0.78133106 0 3.1022647e-05)
(0.78126908 0 3.1017074e-05)
(0.78120711 0 3.1012179e-05)
(0.78114514 0 3.1007829e-05)
(0.78108318 -6.533983e-21 3.1003913e-05)
(0.78102122 0 3.1000342e-05)
(0.78095926 0 3.0997041e-05)
(0.78089731 0 3.0993951e-05)
(0.78083536 0 3.0991025e-05)
(0.78077342 0 3.0988222e-05)
(0.78071147 0 3.0985513e-05)
(0.78064953 -6.4838427e-21 3.0982871e-05)
(0.78058759 0 3.0980277e-05)
(0.78052566 0 3.0977715e-05)
(0.78046372 0 3.0975174e-05)
(0.78040179 0 3.0972644e-05)
(0.78033986 -6.4480299e-21 3.0970118e-05)
(0.78027793 0 3.096759e-05)
(0.780216 0 3.0965056e-05)
(0.78015408 0 3.0962515e-05)
(0.78009215 0 3.0959963e-05)
(0.78003023 -6.4122185e-21 3.09574e-05)
(0.77996831 0 3.0954825e-05)
(0.77990639 0 3.0952238e-05)
(0.77984448 0 3.0949639e-05)
(0.77978256 0 3.0947028e-05)
(0.77972065 0 3.0944406e-05)
(0.77965874 0 3.0941774e-05)
(0.77959684 0 3.0939131e-05)
(0.77953493 0 3.093648e-05)
(0.77947303 0 3.093382e-05)
(0.77941113 0 3.0931152e-05)
(0.77934923 0 3.0928476e-05)
(0.77928734 -6.3262774e-21 3.0925795e-05)
(0.77922544 0 3.0923107e-05)
(0.77916355 0 3.0920414e-05)
(0.77910166 0 3.0917717e-05)
(0.77903978 0 3.0915014e-05)
(0.77897789 -6.2904711e-21 3.0912308e-05)
(0.77891601 0 3.0909599e-05)
(0.77885413 0 3.0906886e-05)
(0.77879225 0 3.0904171e-05)
(0.77873038 0 3.0901453e-05)
(0.7786685 -6.2546662e-21 3.0898732e-05)
(0.77860663 0 3.089601e-05)
(0.77854476 0 3.0893286e-05)
(0.7784829 0 3.0890561e-05)
(0.77842104 0 3.0887834e-05)
(0.77835917 0 3.0885106e-05)
(0.77829732 0 3.0882377e-05)
(0.77823546 -6.204542e-21 3.0879647e-05)
(0.7781736 0 3.0876917e-05)
(0.77811175 0 3.0874186e-05)
(0.7780499 0 3.0871454e-05)
(0.77798806 0 3.0868722e-05)
(0.77792621 -6.1687408e-21 3.086599e-05)
(0.77786437 0 3.0863258e-05)
(0.77780253 0 3.0860526e-05)
(0.77774069 0 3.0857793e-05)
(0.77767886 0 3.0855061e-05)
(0.77761702 -6.1329411e-21 3.0852329e-05)
(0.77755519 0 3.0849597e-05)
(0.77749336 0 3.0846865e-05)
(0.77743154 0 3.0844133e-05)
(0.77736972 0 3.0841401e-05)
(0.77730789 0 3.083867e-05)
(0.77724608 0 3.0835939e-05)
(0.77718426 0 3.0833208e-05)
(0.77712245 0 3.0830477e-05)
(0.77706063 0 3.0827747e-05)
(0.77699882 0 3.0825016e-05)
(0.77693702 0 3.0822287e-05)
(0.77687521 -6.047028e-21 3.0819557e-05)
(0.77681341 0 3.0816828e-05)
(0.77675161 0 3.0814099e-05)
(0.77668981 0 3.081137e-05)
(0.77662802 0 3.0808642e-05)
(0.77656623 -6.0112335e-21 3.0805914e-05)
(0.77650444 0 3.0803186e-05)
(0.77644265 0 3.0800458e-05)
(0.77638086 0 3.0797731e-05)
(0.77631908 0 3.0795004e-05)
(0.7762573 0 3.0792278e-05)
(0.77619552 0 3.0789552e-05)
(0.77613374 0 3.0786826e-05)
(0.77607197 0 3.07841e-05)
(0.7760102 0 3.0781374e-05)
(0.77594843 0 3.0778649e-05)
(0.77588666 0 3.0775924e-05)
(0.7758249 0 3.0773198e-05)
(0.77576314 0 3.0770473e-05)
(0.77570138 0 3.0767748e-05)
(0.77563962 0 3.0765023e-05)
(0.77557787 0 3.0762298e-05)
(0.77551611 0 3.0759573e-05)
(0.77545436 0 3.0756848e-05)
(0.77539262 0 3.0754123e-05)
(0.77533087 5.8680707e-21 3.0751398e-05)
(0.77526913 0 3.0748674e-05)
(0.77520739 0 3.0745949e-05)
(0.77514565 0 3.0743224e-05)
(0.77508391 0 3.07405e-05)
(0.77502218 5.8322839e-21 3.0737776e-05)
(0.77496045 0 3.0735052e-05)
(0.77489872 0 3.0732328e-05)
(0.77483699 0 3.0729604e-05)
(0.77477527 0 3.0726881e-05)
(0.77471355 5.7964987e-21 3.0724158e-05)
(0.77465183 0 3.0721435e-05)
(0.77459011 0 3.0718712e-05)
(0.77452839 0 3.071599e-05)
(0.77446668 -5.7678716e-21 3.0713267e-05)
(0.77440497 0 3.0710545e-05)
(0.77434326 0 3.0707824e-05)
(0.77428156 0 3.0705102e-05)
(0.77421986 0 3.0702381e-05)
(0.77415816 -5.7320892e-21 3.069966e-05)
(0.77409646 0 3.0696939e-05)
(0.77403476 0 3.0694218e-05)
(0.77397307 5.7106205e-21 3.0691497e-05)
(0.77391138 0 3.0688777e-05)
(0.77384969 -5.6963084e-21 3.0686057e-05)
(0.773788 5.6891524e-21 3.0683338e-05)
(0.77372632 0 3.0680618e-05)
(0.77366464 5.6748406e-21 3.0677899e-05)
(0.77360296 0 3.0675181e-05)
(0.77354128 0 3.0672462e-05)
(0.7734796 5.6533735e-21 3.0669744e-05)
(0.77341793 0 3.0667027e-05)
(0.77335626 5.6390624e-21 3.0664309e-05)
(0.77329459 0 3.0661592e-05)
(0.77323293 0 3.0658875e-05)
(0.77317127 5.6175962e-21 3.0656159e-05)
(0.7731096 -5.6104409e-21 3.0653442e-05)
(0.77304795 0 3.0650726e-05)
(0.77298629 5.5961305e-21 3.064801e-05)
(0.77292464 0 3.0645294e-05)
(0.77286299 0 3.0642578e-05)
(0.77280134 -5.5746655e-21 3.0639863e-05)
(0.77273969 0 3.0637147e-05)
(0.77267805 5.5603558e-21 3.0634432e-05)
(0.7726164 0 3.0631717e-05)
(0.77255476 0 3.0629001e-05)
(0.77249313 -5.5388917e-21 3.0626286e-05)
(0.77243149 5.5317371e-21 3.0623572e-05)
(0.77236986 -5.5245826e-21 3.0620857e-05)
(0.77230823 0 3.0618142e-05)
(0.7722466 5.5102738e-21 3.0615428e-05)
(0.77218498 0 3.0612714e-05)
(0.77212335 5.4959653e-21 3.0609999e-05)
(0.77206173 0 3.0607286e-05)
(0.77200011 0 3.0604572e-05)
(0.7719385 5.474503e-21 3.0601858e-05)
(0.77187688 0 3.0599144e-05)
(0.77181527 5.4601951e-21 3.0596431e-05)
(0.77175366 0 3.0593718e-05)
(0.77169206 0 3.0591004e-05)
(0.77163045 5.4387337e-21 3.0588291e-05)
(0.77156885 0 3.0585578e-05)
(0.77150725 0 3.0582865e-05)
(0.77144565 0 3.0580152e-05)
(0.77138406 0 3.0577439e-05)
(0.77132247 0 3.0574726e-05)
(0.77126088 0 3.0572013e-05)
(0.77119929 0 3.05693e-05)
(0.7711377 0 3.0566588e-05)
(0.77107612 0 3.0563875e-05)
(0.77101454 0 3.0561163e-05)
(0.77095296 0 3.055845e-05)
(0.77089138 5.3528943e-21 3.0555738e-05)
(0.77082981 -5.3457414e-21 3.0553026e-05)
(0.77076824 0 3.0550315e-05)
(0.77070667 0 3.0547603e-05)
(0.7706451 0 3.0544892e-05)
(0.77058354 5.3171306e-21 3.054218e-05)
(0.77052198 5.3099781e-21 3.0539469e-05)
(0.77046042 0 3.0536758e-05)
(0.77039886 0 3.0534047e-05)
(0.7703373 0 3.0531337e-05)
(0.77027575 5.2813687e-21 3.0528626e-05)
(0.7702142 5.2742165e-21 3.0525916e-05)
(0.77015265 0 3.0523205e-05)
(0.77009111 0 3.0520495e-05)
(0.77002956 0 3.0517785e-05)
(0.76996802 0 3.0515075e-05)
(0.76990648 5.2384565e-21 3.0512365e-05)
(0.76984495 0 3.0509655e-05)
(0.76978341 0 3.0506945e-05)
(0.76972188 0 3.0504236e-05)
(0.76966035 0 3.0501526e-05)
(0.76959883 5.2026982e-21 3.0498817e-05)
(0.7695373 0 3.0496107e-05)
(0.76947578 0 3.0493398e-05)
(0.76941426 0 3.0490689e-05)
(0.76935274 0 3.048798e-05)
(0.76929123 -5.1669416e-21 3.0485271e-05)
(0.76922971 0 3.0482562e-05)
(0.7691682 5.1526394e-21 3.0479853e-05)
(0.7691067 0 3.0477145e-05)
(0.76904519 0 3.0474436e-05)
(0.76898369 5.1311867e-21 3.0471728e-05)
(0.76892219 0 3.0469019e-05)
(0.76886069 5.1168852e-21 3.0466311e-05)
(0.76879919 0 3.0463603e-05)
(0.7687377 0 3.0460895e-05)
(0.7686762 5.0954335e-21 3.0458187e-05)
(0.76861472 0 3.045548e-05)
(0.76855323 5.0811326e-21 3.0452772e-05)
(0.76849174 0 3.0450064e-05)
(0.76843026 0 3.0447357e-05)
(0.76836878 5.0596819e-21 3.044465e-05)
(0.7683073 -5.0525318e-21 3.0441943e-05)
(0.76824583 0 3.0439236e-05)
(0.76818436 0 3.0436529e-05)
(0.76812288 0 3.0433822e-05)
(0.76806142 5.0239321e-21 3.0431115e-05)
(0.76799995 -5.0167824e-21 3.0428409e-05)
(0.76793849 0 3.0425702e-05)
(0.76787703 0 3.0422996e-05)
(0.76781557 4.9953335e-21 3.042029e-05)
(0.76775411 -4.988184e-21 3.0417584e-05)
(0.76769266 -4.9810346e-21 3.0414878e-05)
(0.7676312 4.9738853e-21 3.0412172e-05)
(0.76756975 0 3.0409466e-05)
(0.76750831 4.9595868e-21 3.0406761e-05)
(0.76744686 4.9524377e-21 3.0404055e-05)
(0.76738542 0 3.040135e-05)
(0.76732398 4.9381396e-21 3.0398645e-05)
(0.76726254 0 3.039594e-05)
(0.76720111 4.9238418e-21 3.0393235e-05)
(0.76713967 4.916693e-21 3.039053e-05)
(0.76707824 0 3.0387825e-05)
(0.76701681 4.9023956e-21 3.038512e-05)
(0.76695539 -4.8952471e-21 3.0382415e-05)
(0.76689397 0 3.037971e-05)
(0.76683254 4.8809501e-21 3.0377005e-05)
(0.76677112 0 3.0374301e-05)
(0.76670971 0 3.0371596e-05)
(0.76664829 -4.8595052e-21 3.0368892e-05)
(0.76658688 0 3.0366188e-05)
(0.76652547 4.8452089e-21 3.0363484e-05)
(0.76646407 4.8380609e-21 3.036078e-05)
(0.76640266 -4.830913e-21 3.0358076e-05)
(0.76634126 4.8237651e-21 3.0355372e-05)
(0.76627986 4.8166173e-21 3.0352669e-05)
(0.76621846 -4.8094695e-21 3.0349966e-05)
(0.76615706 4.8023219e-21 3.0347263e-05)
(0.76609567 4.7951743e-21 3.0344561e-05)
(0.76603428 -4.7880267e-21 3.0341858e-05)
(0.76597289 4.7808793e-21 3.0339156e-05)
(0.76591151 -4.7737319e-21 3.0336454e-05)
(0.76585012 4.7665845e-21 3.0333752e-05)
(0.76578874 4.7594373e-21 3.0331051e-05)
(0.76572736 -4.7522901e-21 3.032835e-05)
(0.76566598 4.745143e-21 3.0325649e-05)
(0.76560461 0 3.0322948e-05)
(0.76554324 -4.730849e-21 3.0320247e-05)
(0.76548187 4.7237021e-21 3.0317547e-05)
(0.7654205 0 3.0314846e-05)
(0.76535914 -4.7094085e-21 3.0312146e-05)
(0.76529777 0 3.0309446e-05)
(0.76523641 4.6951152e-21 3.0306747e-05)
(0.76517506 -4.6879687e-21 3.0304047e-05)
(0.7651137 0 3.0301348e-05)
(0.76505235 -4.6736758e-21 3.0298648e-05)
(0.764991 0 3.0295949e-05)
(0.76492965 4.6593832e-21 3.029325e-05)
(0.7648683 -4.652237e-21 3.0290551e-05)
(0.76480696 0 3.0287852e-05)
(0.76474562 4.6379448e-21 3.0285154e-05)
(0.76468428 -4.6307989e-21 3.0282455e-05)
(0.76462294 4.623653e-21 3.0279757e-05)
(0.76456161 0 3.0277058e-05)
(0.76450027 -4.6093614e-21 3.027436e-05)
(0.76443894 4.6022157e-21 3.0271661e-05)
(0.76437762 -4.5950701e-21 3.0268963e-05)
(0.76431629 4.5879245e-21 3.0266265e-05)
(0.76425497 0 3.0263566e-05)
(0.76419365 -4.5736337e-21 3.0260868e-05)
(0.76413233 4.5664883e-21 3.025817e-05)
(0.76407101 4.5593431e-21 3.0255471e-05)
(0.7640097 -4.5521979e-21 3.0252773e-05)
(0.76394839 0 3.0250075e-05)
(0.76388708 0 3.0247376e-05)
(0.76382577 -4.5307628e-21 3.0244678e-05)
(0.76376447 4.5236179e-21 3.024198e-05)
(0.76370317 4.516473e-21 3.0239282e-05)
(0.76364187 -4.5093283e-21 3.0236584e-05)
(0.76358057 0 3.0233886e-05)
(0.76351928 -4.495039e-21 3.0231188e-05)
(0.76345799 4.4878945e-21 3.022849e-05)
(0.7633967 4.48075e-21 3.0225792e-05)
(0.76333541 -4.4736056e-21 3.0223094e-05)
(0.76327412 0 3.0220396e-05)
(0.76321284 0 3.0217698e-05)
(0.76315156 -4.4521729e-21 3.0215e-05)
(0.76309028 4.4450288e-21 3.0212303e-05)
(0.76302901 4.4378847e-21 3.0209605e-05)
(0.76296773 -4.4307408e-21 3.0206908e-05)
(0.76290646 0 3.020421e-05)
(0.76284519 -4.4164531e-21 3.0201513e-05)
(0.76278393 4.4093094e-21 3.0198816e-05)
(0.76272266 4.4021657e-21 3.0196119e-05)
(0.7626614 -4.3950221e-21 3.0193422e-05)
(0.76260014 0 3.0190726e-05)
(0.76253888 4.3807351e-21 3.0188029e-05)
(0.76247763 -4.3735918e-21 3.0185333e-05)
(0.76241638 4.3664485e-21 3.0182637e-05)
(0.76235513 0 3.0179941e-05)
(0.76229388 -4.3521621e-21 3.0177245e-05)
(0.76223263 4.345019e-21 3.0174549e-05)
(0.76217139 0 3.0171854e-05)
(0.76211015 -4.3307331e-21 3.0169159e-05)
(0.76204891 0 3.0166464e-05)
(0.76198768 -4.3164475e-21 3.0163769e-05)
(0.76192644 4.3093048e-21 3.0161075e-05)
(0.76186521 0 3.015838e-05)
(0.76180398 -4.2950196e-21 3.0155686e-05)
(0.76174276 0 3.0152992e-05)
(0.76168153 4.2807347e-21 3.0150299e-05)
(0.76162031 -4.2735923e-21 3.0147605e-05)
(0.76155909 0 3.0144912e-05)
(0.76149787 4.2593079e-21 3.0142219e-05)
(0.76143666 -4.2521658e-21 3.0139526e-05)
(0.76137545 4.2450237e-21 3.0136833e-05)
(0.76131424 -4.2378817e-21 3.013414e-05)
(0.76125303 0 3.0131447e-05)
(0.76119182 4.223598e-21 3.0128755e-05)
(0.76113062 -4.2164563e-21 3.0126063e-05)
(0.76106942 4.2093146e-21 3.012337e-05)
(0.76100822 4.202173e-21 3.0120678e-05)
(0.76094703 -4.1950315e-21 3.0117986e-05)
(0.76088583 4.1878901e-21 3.0115294e-05)
(0.76082464 4.1807487e-21 3.0112602e-05)
(0.76076345 -4.1736074e-21 3.010991e-05)
(0.76070227 4.1664662e-21 3.0107218e-05)
(0.76064108 4.159325e-21 3.0104526e-05)
(0.7605799 -4.152184e-21 3.0101835e-05)
(0.76051872 4.145043e-21 3.0099143e-05)
(0.76045754 -4.137902e-21 3.0096451e-05)
(0.76039637 4.1307612e-21 3.009376e-05)
(0.7603352 4.1236204e-21 3.0091068e-05)
(0.76027402 -4.1164797e-21 3.0088377e-05)
(0.76021286 4.1093391e-21 3.0085686e-05)
(0.76015169 4.1021986e-21 3.0082994e-05)
(0.76009053 -4.0950581e-21 3.0080303e-05)
(0.76002937 4.0879177e-21 3.0077612e-05)
(0.75996821 4.0807774e-21 3.0074921e-05)
(0.75990705 -4.0736371e-21 3.007223e-05)
(0.7598459 4.066497e-21 3.0069539e-05)
(0.75978475 -4.0593569e-21 3.0066847e-05)
(0.7597236 4.0522168e-21 3.0064156e-05)
(0.75966245 4.0450769e-21 3.0061465e-05)
(0.75960131 -4.037937e-21 3.0058774e-05)
(0.75954017 4.0307973e-21 3.0056083e-05)
(0.75947903 0 3.0053392e-05)
(0.75941789 -4.0165179e-21 3.0050701e-05)
(0.75935675 4.0093783e-21 3.004801e-05)
(0.75929562 0 3.0045319e-05)
(0.75923449 -3.9950994e-21 3.0042628e-05)
(0.75917336 0 3.0039937e-05)
(0.75911224 -3.9808209e-21 3.0037247e-05)
(0.75905111 3.9736817e-21 3.0034556e-05)
(0.75898999 0 3.0031865e-05)
(0.75892887 -3.9594035e-21 3.0029174e-05)
(0.75886776 0 3.0026484e-05)
(0.75880664 3.9451257e-21 3.0023793e-05)
(0.75874553 -3.9379869e-21 3.0021103e-05)
(0.75868442 0 3.0018412e-05)
(0.75862332 3.9237096e-21 3.0015722e-05)
(0.75856221 -3.916571e-21 3.0013032e-05)
(0.75850111 3.9094325e-21 3.0010341e-05)
(0.75844001 0 3.0007651e-05)
(0.75837891 -3.8951557e-21 3.0004961e-05)
(0.75831782 3.8880175e-21 3.0002271e-05)
(0.75825672 -3.8808793e-21 2.9999581e-05)
(0.75819563 3.8737412e-21 2.9996891e-05)
(0.75813455 0 2.9994201e-05)
(0.75807346 -3.8594652e-21 2.9991511e-05)
(0.75801238 3.8523273e-21 2.9988821e-05)
(0.7579513 3.8451895e-21 2.9986131e-05)
(0.75789022 -3.8380518e-21 2.9983441e-05)
(0.75782914 0 2.9980752e-05)
(0.75776807 0 2.9978062e-05)
(0.757707 -3.8166391e-21 2.9975373e-05)
(0.75764593 3.8095017e-21 2.9972683e-05)
(0.75758486 -3.8023644e-21 2.9969994e-05)
(0.7575238 0 2.9967305e-05)
(0.75746273 0 2.9964616e-05)
(0.75740167 -3.7809529e-21 2.9961927e-05)
(0.75734062 3.7738158e-21 2.9959238e-05)
(0.75727956 3.7666789e-21 2.9956549e-05)
(0.75721851 -3.759542e-21 2.995386e-05)
(0.75715746 0 2.9951171e-05)
(0.75709641 0 2.9948483e-05)
(0.75703536 -3.7381319e-21 2.9945794e-05)
(0.75697432 3.7309953e-21 2.9943106e-05)
(0.75691328 3.7238589e-21 2.9940417e-05)
(0.75685224 -3.7167225e-21 2.9937729e-05)
(0.75679121 0 2.9935041e-05)
(0.75673017 -3.7024499e-21 2.9932353e-05)
(0.75666914 3.6953138e-21 2.9929665e-05)
(0.75660811 3.6881777e-21 2.9926977e-05)
(0.75654708 -3.6810417e-21 2.9924289e-05)
(0.75648606 0 2.9921601e-05)
(0.75642504 3.6667699e-21 2.9918913e-05)
(0.75636402 -3.6596341e-21 2.9916226e-05)
(0.756303 3.6524984e-21 2.9913538e-05)
(0.75624199 0 2.9910851e-05)
(0.75618097 -3.6382273e-21 2.9908163e-05)
(0.75611996 3.6310918e-21 2.9905476e-05)
(0.75605895 -3.6239565e-21 2.9902789e-05)
(0.75599795 3.6168212e-21 2.9900102e-05)
(0.75593695 0 2.9897415e-05)
(0.75587595 -3.6025508e-21 2.9894728e-05)
(0.75581495 3.5954157e-21 2.9892041e-05)
(0.75575395 0 2.9889355e-05)
(0.75569296 -3.5811459e-21 2.9886668e-05)
(0.75563197 0 2.9883982e-05)
(0.75557098 3.5668763e-21 2.9881295e-05)
(0.75550999 -3.5597416e-21 2.9878609e-05)
(0.75544901 0 2.9875923e-05)
(0.75538802 3.5454726e-21 2.9873237e-05)
(0.75532704 -3.5383381e-21 2.9870551e-05)
(0.75526607 3.5312038e-21 2.9867865e-05)
(0.75520509 -3.5240695e-21 2.9865179e-05)
(0.75514412 0 2.9862493e-05)
(0.75508315 3.5098012e-21 2.9859808e-05)
(0.75502218 -3.5026672e-21 2.9857122e-05)
(0.75496122 3.4955333e-21 2.9854437e-05)
(0.75490025 3.4883994e-21 2.9851751e-05)
(0.75483929 -3.4812656e-21 2.9849066e-05)
(0.75477833 3.4741319e-21 2.9846381e-05)
(0.75471738 3.4669983e-21 2.9843696e-05)
(0.75465642 -3.4598648e-21 2.9841012e-05)
(0.75459547 3.4527313e-21 2.9838327e-05)
(0.75453452 -3.4455979e-21 2.9835642e-05)
(0.75447358 3.4384646e-21 2.9832958e-05)
(0.75441263 3.4313314e-21 2.9830274e-05)
(0.75435169 -3.4241982e-21 2.982759e-05)
(0.75429075 3.4170652e-21 2.9824906e-05)
(0.75422981 3.4099322e-21 2.9822222e-05)
(0.75416888 -3.4027993e-21 2.9819539e-05)
(0.75410795 3.3956665e-21 2.9816855e-05)
(0.75404702 3.3885337e-21 2.9814172e-05)
(0.75398609 -3.3814011e-21 2.9811489e-05)
(0.75392516 3.3742685e-21 2.9808806e-05)
(0.75386424 3.367136e-21 2.9806123e-05)
(0.75380332 -3.3600036e-21 2.980344e-05)
(0.7537424 3.3528712e-21 2.9800757e-05)
(0.75368148 -3.345739e-21 2.9798075e-05)
(0.75362057 3.3386068e-21 2.9795392e-05)
(0.75355966 3.3314747e-21 2.979271e-05)
(0.75349875 -3.3243427e-21 2.9790029e-05)
(0.75343784 3.3172108e-21 2.9787347e-05)
(0.75337694 0 2.9784666e-05)
(0.75331604 -3.3029472e-21 2.9781984e-05)
(0.75325514 3.2958155e-21 2.9779304e-05)
(0.75319424 0 2.9776623e-05)
(0.75313335 -3.2815524e-21 2.9773943e-05)
(0.75307245 0 2.9771263e-05)
(0.75301156 -3.2672896e-21 2.9768583e-05)
(0.75295068 3.2601583e-21 2.9765903e-05)
(0.75288979 0 2.9763224e-05)
(0.75282891 -3.245896e-21 2.9760544e-05)
(0.75276803 0 2.9757865e-05)
(0.75270715 3.231634e-21 2.9755187e-05)
(0.75264627 -3.2245031e-21 2.9752508e-05)
(0.7525854 0 2.9749829e-05)
(0.75252453 3.2102416e-21 2.9747151e-05)
(0.75246366 -3.203111e-21 2.9744473e-05)
(0.75240279 3.1959805e-21 2.9741795e-05)
(0.75234193 0 2.9739118e-05)
(0.75228107 -3.1817196e-21 2.973644e-05)
(0.75222021 3.1745893e-21 2.9733763e-05)
(0.75215935 -3.1674591e-21 2.9731086e-05)
(0.75209849 3.160329e-21 2.972841e-05)
(0.75203764 0 2.9725734e-05)
(0.75197679 -3.146069e-21 2.9723058e-05)
(0.75191594 3.1389391e-21 2.9720382e-05)
(0.7518551 3.1318093e-21 2.9717706e-05)
(0.75179425 -3.1246796e-21 2.9715031e-05)
(0.75173341 0 2.9712356e-05)
(0.75167258 0 2.9709681e-05)
(0.75161174 -3.1032909e-21 2.9707007e-05)
(0.75155091 3.0961615e-21 2.9704332e-05)
(0.75149007 -3.0890322e-21 2.9701658e-05)
(0.75142925 0 2.9698983e-05)
(0.75136842 0 2.9696309e-05)
(0.75130759 -3.0676448e-21 2.9693635e-05)
(0.75124677 3.0605158e-21 2.9690961e-05)
(0.75118595 3.0533869e-21 2.9688287e-05)
(0.75112514 -3.0462581e-21 2.9685613e-05)
(0.75106432 0 2.968294e-05)
(0.75100351 0 2.9680266e-05)
(0.7509427 -3.0248722e-21 2.9677592e-05)
(0.75088189 3.0177437e-21 2.9674919e-05)
(0.75082108 -3.0106153e-21 2.9672246e-05)
(0.75076028 0 2.9669573e-05)
(0.75069948 0 2.96669e-05)
(0.75063868 -2.9892307e-21 2.9664227e-05)
(0.75057788 2.9821026e-21 2.9661555e-05)
(0.75051709 2.9749746e-21 2.9658882e-05)
(0.7504563 -2.9678468e-21 2.965621e-05)
(0.75039551 0 2.9653538e-05)
(0.75033472 2.9535912e-21 2.9650866e-05)
(0.75027394 -2.9464636e-21 2.9648194e-05)
(0.75021316 2.9393361e-21 2.9645522e-05)
(0.75015238 0 2.964285e-05)
(0.7500916 -2.9250812e-21 2.9640179e-05)
(0.75003082 2.9179539e-21 2.9637507e-05)
(0.74997005 -2.9108267e-21 2.9634836e-05)
(0.74990928 2.9036996e-21 2.9632164e-05)
(0.74984851 0 2.9629493e-05)
(0.74978775 -2.8894455e-21 2.9626822e-05)
(0.74972698 2.8823187e-21 2.962415e-05)
(0.74966622 0 2.9621479e-05)
(0.74960546 -2.8680652e-21 2.9618809e-05)
(0.74954471 0 2.9616138e-05)
(0.74948395 2.853812e-21 2.9613467e-05)
(0.7494232 -2.8466855e-21 2.9610797e-05)
(0.74936245 0 2.9608126e-05)
(0.74930171 -2.8324329e-21 2.9605456e-05)
(0.74924096 0 2.9602786e-05)
(0.74918022 2.8181806e-21 2.9600116e-05)
(0.74911948 -2.8110545e-21 2.9597446e-05)
(0.74905874 0 2.9594777e-05)
(0.74899801 2.7968027e-21 2.9592107e-05)
(0.74893727 -2.789677e-21 2.9589437e-05)
(0.74887654 2.7825513e-21 2.9586768e-05)
(0.74881581 2.7754257e-21 2.9584098e-05)
(0.74875509 -2.7683002e-21 2.9581429e-05)
(0.74869437 2.7611747e-21 2.9578759e-05)
(0.74863364 2.7540494e-21 2.9576089e-05)
(0.74857293 -2.7469241e-21 2.957342e-05)
(0.74851221 2.7397989e-21 2.957075e-05)
(0.74845149 -2.7326739e-21 2.9568081e-05)
(0.74839078 2.7255488e-21 2.9565411e-05)
(0.74833007 2.7184239e-21 2.9562742e-05)
(0.74826937 -2.7112991e-21 2.9560072e-05)
(0.74820866 2.7041744e-21 2.9557403e-05)
(0.74814796 2.6970497e-21 2.9554734e-05)
(0.74808726 -2.6899251e-21 2.9552065e-05)
(0.74802656 2.6828006e-21 2.9549396e-05)
(0.74796587 2.6756762e-21 2.9546728e-05)
(0.74790517 -2.6685519e-21 2.9544059e-05)
(0.74784448 2.6614277e-21 2.9541391e-05)
(0.74778379 -2.6543035e-21 2.9538723e-05)
(0.74772311 2.6471795e-21 2.9536055e-05)
(0.74766242 2.6400555e-21 2.9533388e-05)
(0.74760174 -2.6329316e-21 2.953072e-05)
(0.74754106 2.6258078e-21 2.9528052e-05)
(0.74748039 2.6186841e-21 2.9525384e-05)
(0.74741971 -2.6115605e-21 2.9522717e-05)
(0.74735904 2.604437e-21 2.9520049e-05)
(0.74729837 0 2.951738e-05)
(0.7472377 -2.5901901e-21 2.9514712e-05)
(0.74717704 2.5830669e-21 2.9512043e-05)
(0.74711638 0 2.9509374e-05)
(0.74705572 -2.5688206e-21 2.9506704e-05)
(0.74699506 0 2.9504034e-05)
(0.7469344 -2.5545746e-21 2.9501363e-05)
(0.74687375 0 2.9498691e-05)
(0.7468131 0 2.9496019e-05)
(0.74675245 0 2.9493346e-05)
(0.74669181 2.5260838e-21 2.9490672e-05)
(0.74663116 0 2.9487998e-05)
(0.74657052 0 2.9485322e-05)
(0.74650988 0 2.9482646e-05)
(0.74644925 0 2.9479969e-05)
(0.74638861 -2.4904722e-21 2.9477291e-05)
(0.74632798 0 2.9474613e-05)
(0.74626735 0 2.9471934e-05)
(0.74620672 0 2.9469254e-05)
(0.7461461 0 2.9466574e-05)
(0.74608548 -2.4548628e-21 2.9463893e-05)
(0.74602486 0 2.9461212e-05)
(0.74596424 2.4406197e-21 2.9458531e-05)
(0.74590363 -2.4334983e-21 2.9455849e-05)
(0.74584301 0 2.9453168e-05)
(0.7457824 0 2.9450486e-05)
(0.7457218 -2.4121345e-21 2.9447805e-05)
(0.74566119 2.4050134e-21 2.9445124e-05)
(0.74560059 0 2.9442444e-05)
(0.74553999 0 2.9439764e-05)
(0.74547939 0 2.9437084e-05)
(0.74541879 -2.3765299e-21 2.9434405e-05)
(0.7453582 2.3694093e-21 2.9431727e-05)
(0.74529761 0 2.942905e-05)
(0.74523702 0 2.9426373e-05)
(0.74517643 0 2.9423698e-05)
(0.74511585 0 2.9421023e-05)
(0.74505527 0 2.9418349e-05)
(0.74499469 0 2.9415676e-05)
(0.74493411 2.3195673e-21 2.9413004e-05)
(0.74487354 -2.3124473e-21 2.9410334e-05)
(0.74481297 0 2.9407664e-05)
(0.7447524 0 2.9404995e-05)
(0.74469183 0 2.9402328e-05)
(0.74463126 2.2839685e-21 2.9399662e-05)
(0.7445707 -2.276849e-21 2.9396997e-05)
(0.74451014 0 2.9394333e-05)
(0.74444958 0 2.9391671e-05)
(0.74438903 -2.2554911e-21 2.938901e-05)
(0.74432847 2.2483719e-21 2.938635e-05)
(0.74426792 0 2.9383692e-05)
(0.74420737 -2.2341339e-21 2.9381034e-05)
(0.74414683 0 2.9378378e-05)
(0.74408628 -2.2198963e-21 2.9375723e-05)
(0.74402574 2.2127776e-21 2.9373069e-05)
(0.7439652 0 2.9370416e-05)
(0.74390467 -2.1985405e-21 2.9367763e-05)
(0.74384413 0 2.9365112e-05)
(0.7437836 0 2.936246e-05)
(0.74372307 0 2.935981e-05)
(0.74366254 0 2.9357159e-05)
(0.74360202 2.1629493e-21 2.9354509e-05)
(0.74354149 0 2.9351859e-05)
(0.74348097 0 2.9349209e-05)
(0.74342046 0 2.9346559e-05)
(0.74335994 -2.134478e-21 2.9343909e-05)
(0.74329943 2.1273604e-21 2.9341258e-05)
(0.74323891 0 2.9338607e-05)
(0.74317841 0 2.9335956e-05)
(0.7431179 0 2.9333304e-05)
(0.74305739 -2.0988909e-21 2.9330652e-05)
(0.74299689 2.0917737e-21 2.9328e-05)
(0.74293639 0 2.9325347e-05)
(0.7428759 -2.0775397e-21 2.9322693e-05)
(0.7428154 0 2.932004e-05)
(0.74275491 0 2.9317385e-05)
(0.74269442 -2.0561893e-21 2.9314731e-05)
(0.74263393 0 2.9312075e-05)
(0.74257344 -2.0419562e-21 2.930942e-05)
(0.74251296 0 2.9306764e-05)
(0.74245248 0 2.9304107e-05)
(0.742392 -2.0206072e-21 2.930145e-05)
(0.74233152 0 2.9298792e-05)
(0.74227105 2.006375e-21 2.9296134e-05)
(0.74221058 0 2.9293475e-05)
(0.74215011 0 2.9290816e-05)
(0.74208964 0 2.9288156e-05)
(0.74202918 0 2.9285496e-05)
(0.74196871 1.9707961e-21 2.9282835e-05)
(0.74190825 0 2.9280174e-05)
(0.7418478 -1.9565651e-21 2.9277513e-05)
(0.74178734 0 2.9274851e-05)
(0.74172689 0 2.9272189e-05)
(0.74166644 1.9352194e-21 2.9269527e-05)
(0.74160599 0 2.9266864e-05)
(0.74154555 -1.9209894e-21 2.9264202e-05)
(0.7414851 0 2.926154e-05)
(0.74142466 0 2.9258877e-05)
(0.74136422 -1.8996451e-21 2.9256214e-05)
(0.74130379 0 2.9253552e-05)
(0.74124335 1.885416e-21 2.9250889e-05)
(0.74118292 -1.8783016e-21 2.9248227e-05)
(0.74112249 0 2.9245564e-05)
(0.74106206 -1.8640731e-21 2.9242902e-05)
(0.74100164 0 2.924024e-05)
(0.74094122 1.8498449e-21 2.9237577e-05)
(0.7408808 -1.842731e-21 2.9234915e-05)
(0.74082038 0 2.9232253e-05)
(0.74075997 0 2.9229591e-05)
(0.74069955 0 2.922693e-05)
(0.74063914 1.8142761e-21 2.9224268e-05)
(0.74057874 0 2.9221607e-05)
(0.74051833 0 2.9218946e-05)
(0.74045793 0 2.9216286e-05)
(0.74039753 0 2.9213626e-05)
(0.74033713 -1.7787097e-21 2.9210966e-05)
(0.74027673 0 2.9208306e-05)
(0.74021634 0 2.9205647e-05)
(0.74015595 0 2.9202987e-05)
(0.74009556 0 2.9200329e-05)
(0.74003517 -1.7431455e-21 2.919767e-05)
(0.73997479 0 2.9195012e-05)
(0.73991441 1.7289205e-21 2.9192354e-05)
(0.73985403 -1.7218082e-21 2.9189697e-05)
(0.73979365 0 2.9187039e-05)
(0.73973327 0 2.9184382e-05)
(0.7396729 -1.7004717e-21 2.9181725e-05)
(0.73961253 1.6933597e-21 2.9179069e-05)
(0.73955216 -1.6862478e-21 2.9176412e-05)
(0.7394918 0 2.9173756e-05)
(0.73943144 0 2.91711e-05)
(0.73937108 -1.6649127e-21 2.9168445e-05)
(0.73931072 1.6578012e-21 2.916579e-05)
(0.73925036 0 2.9163135e-05)
(0.73919001 0 2.916048e-05)
(0.73912966 0 2.9157825e-05)
(0.73906931 0 2.9155171e-05)
(0.73900896 0 2.9152517e-05)
(0.73894862 0 2.9149864e-05)
(0.73888828 1.6080232e-21 2.914721e-05)
(0.73882794 -1.6009124e-21 2.9144557e-05)
(0.7387676 0 2.9141904e-05)
(0.73870727 0 2.9139251e-05)
(0.73864693 0 2.9136599e-05)
(0.7385866 1.5724703e-21 2.9133946e-05)
(0.73852628 -1.56536e-21 2.9131294e-05)
(0.73846595 0 2.9128642e-05)
(0.73840563 0 2.912599e-05)
(0.73834531 -1.5440297e-21 2.9123338e-05)
(0.73828499 1.5369198e-21 2.9120686e-05)
(0.73822467 0 2.9118034e-05)
(0.73816436 -1.5227003e-21 2.9115383e-05)
(0.73810405 0 2.9112732e-05)
(0.73804374 -1.5084811e-21 2.9110081e-05)
(0.73798343 1.5013717e-21 2.910743e-05)
(0.73792313 0 2.9104779e-05)
(0.73786283 -1.4871531e-21 2.9102129e-05)
(0.73780253 0 2.9099478e-05)
(0.73774223 0 2.9096828e-05)
(0.73768194 0 2.9094178e-05)
(0.73762164 0 2.9091528e-05)
(0.73756135 1.4516083e-21 2.9088878e-05)
(0.73750107 0 2.9086228e-05)
(0.73744078 0 2.9083579e-05)
(0.7373805 0 2.9080929e-05)
(0.73732022 -1.4231742e-21 2.9078279e-05)
(0.73725994 1.4160659e-21 2.907563e-05)
(0.73719966 0 2.907298e-05)
(0.73713939 0 2.9070331e-05)
(0.73707912 0 2.9067681e-05)
(0.73701885 -1.3876337e-21 2.9065032e-05)
(0.73695859 1.3805259e-21 2.9062383e-05)
(0.73689832 0 2.9059734e-05)
(0.73683806 -1.3663106e-21 2.9057085e-05)
(0.7367778 0 2.9054437e-05)
(0.73671754 0 2.9051788e-05)
(0.73665729 -1.3449883e-21 2.904914e-05)
(0.73659704 0 2.9046491e-05)
(0.73653679 -1.330774e-21 2.9043843e-05)
(0.73647654 0 2.9041195e-05)
(0.73641629 0 2.9038547e-05)
(0.73635605 -1.3094532e-21 2.9035899e-05)
(0.73629581 0 2.9033251e-05)
(0.73623557 1.2952398e-21 2.9030603e-05)
(0.73617534 0 2.9027955e-05)
(0.7361151 0 2.9025308e-05)
(0.73605487 0 2.902266e-05)
(0.73599464 0 2.9020012e-05)
(0.73593442 1.259708e-21 2.9017364e-05)
(0.73587419 0 2.9014717e-05)
(0.73581397 0 2.9012069e-05)
(0.73575375 0 2.9009422e-05)
(0.73569354 0 2.9006775e-05)
(0.73563332 1.2241786e-21 2.9004128e-05)
(0.73557311 0 2.9001481e-05)
(0.7355129 -1.2099675e-21 2.8998835e-05)
(0.73545269 0 2.8996188e-05)
(0.73539249 0 2.8993542e-05)
(0.73533228 -1.1886517e-21 2.8990896e-05)
(0.73527208 0 2.898825e-05)
(0.73521188 1.1744416e-21 2.8985604e-05)
(0.73515169 -1.1673367e-21 2.8982958e-05)
(0.7350915 0 2.8980313e-05)
(0.7350313 -1.1531272e-21 2.8977667e-05)
(0.73497112 0 2.8975022e-05)
(0.73491093 1.1389181e-21 2.8972376e-05)
(0.73485075 -1.1318137e-21 2.8969731e-05)