/*--------------------------------*- C++ -*----------------------------------*\
  =========                 |
  \\      /  F ield         | OpenFOAM: The Open Source CFD Toolbox
   \\    /   O peration     | Website:  https://openfoam.org
    \\  /    A nd           | Version:  6
     \\/     M anipulation  |
\*---------------------------------------------------------------------------*/
FoamFile
{
    version     2.0;
    format      ascii;
    class       volVectorField;
    location    "10000";
    object      grad(p);
}
// * * * * * * * * * * * * * * * * * * * * * * * * * * * * * * * * * * * * * //

dimensions      [0 1 -2 0 0 0 0];

internalField   nonuniform List<vector> 
4000
(
(-174038.83 0 -13321.665)
(-253093.93 0 -150.05627)
(-182930 0 -2751.7198)
(-189101.55 0 290.25397)
(-179984.21 0 -400.45051)
(-183916.47 0 190.26161)
(-182001.69 0 -100.16276)
(-183579.18 0 70.131497)
(-182882.88 0 -40.085181)
(-183482.07 0 30.07142)
(-183200.95 0 -20.052638)
(-183442.03 0 20.057666)
(-183337.98 0 -10.031348)
(-183448.01 0 0)
(-183420.99 0 0)
(-183478 0 10.038901)
(-183482 0 0)
(-183520 0 10.043942)
(-183536 0 0)
(-183566 0 0)
(-183587 0 0)
(-183615 0 0)
(-183638 0 0)
(-183663 0 0)
(-183688 0 0)
(-183713 0 0)
(-183737 0 0)
(-183762 0 0)
(-183787 0 0)
(-183812 0 0)
(-183837 0 0)
(-183862 0 0)
(-183886 0 0)
(-183911 0 0)
(-183937 0 0)
(-183962 0 0)
(-183986 0 10.09209)
(-184011 0 0)
(-184036 0 10.097185)
(-184061 0 0)
(-184086 0 10.102286)
(-184110 0 0)
(-184136 0 0)
(-184161 0 0)
(-184186 0 0)
(-184211 0 0)
(-184236 0 0)
(-184262 0 0)
(-184286 0 0)
(-184311 0 0)
(-184337 0 0)
(-184362 0 10.130429)
(-184386 0 0)
(-184412 0 0)
(-184437 0 10.138132)
(-184462 0 0)
(-184488 0 0)
(-184513 0 0)
(-184538 0 10.148421)
(-184563 0 0)
(-184588 0 0)
(-184614 0 0)
(-184639 0 10.15873)
(-184664 0 0)
(-184690 0 0)
(-184715 0 0)
(-184740 0 0)
(-184765 0 0)
(-184791 0 0)
(-184817 0 0)
(-184842 0 0)
(-184867 0 0)
(-184893 0 0)
(-184918 0 10.18719)
(-184943 0 0)
(-184969 0 0)
(-184994 0 0)
(-185020 0 0)
(-185046 0 0)
(-185071 0 0)
(-185096 0 0)
(-185122 0 0)
(-185148 0 0)
(-185173 0 0)
(-185199 0 0)
(-185224 0 0)
(-185250 0 0)
(-185276 0 0)
(-185301 0 0)
(-185327 0 0)
(-185353 0 0)
(-185378 0 10.234105)
(-185403.6 0 0)
(-185429.9 0 1.0239344)
(-185455.5 0 1.0241967)
(-185481.2 0 2.0489179)
(-185507 0 1.0247214)
(-185532.8 0 2.049968)
(-185558.5 0 2.0504934)
(-185584.3 0 1.0255096)
(-185610.2 0 1.0257725)
(-185636 0 2.0520713)
(-185661.8 0 1.0262989)
(-185687.7 0 1.0265623)
(-185713.6 0 1.0268258)
(-185739.5 0 2.0541789)
(-185765.4 0 1.0273533)
(-185791.3 0 2.0552344)
(-185817.2 0 2.0557625)
(-185843.2 0 2.056291)
(-185869.1 0 2.0568196)
(-185895.1 0 1.0286743)
(-185921.1 0 2.0578778)
(-185947.1 0 1.0292037)
(-185973.2 0 1.0294685)
(-185999.2 0 2.0594671)
(-186025.2 0 2.0599974)
(-186051.3 0 1.030264)
(-186077.4 0 2.0610589)
(-186103.4 0 2.06159)
(-186129.5 0 1.0310607)
(-186155.7 0 1.0313265)
(-186181.8 0 2.063185)
(-186208 0 1.0318586)
(-186234.2 0 2.0642498)
(-186260.3 0 2.0647826)
(-186286.5 0 2.0653156)
(-186312.7 0 2.0658489)
(-186338.9 0 2.0663825)
(-186365.2 0 1.0334582)
(-186391.4 0 2.0674506)
(-186417.7 0 1.0339925)
(-186444 0 2.0685197)
(-186470.2 0 1.0345274)
(-186496.6 0 1.034795)
(-186523 0 1.0350628)
(-186549.3 0 2.0706613)
(-186575.6 0 2.0711974)
(-186602 0 2.0717338)
(-186628.3 0 2.0722704)
(-186654.7 0 1.0364037)
(-186681.2 0 1.0366723)
(-186707.6 0 1.036941)
(-186734.1 0 1.0372099)
(-186760.5 0 2.0749578)
(-186787 0 1.0377481)
(-186813.5 0 2.0760348)
(-186839.9 0 1.0382868)
(-186866.5 0 1.0385564)
(-186893.1 0 1.0388261)
(-186919.6 0 2.078192)
(-186946.1 0 2.078732)
(-186972.7 0 1.0396361)
(-186999.3 0 1.0399064)
(-187025.9 0 1.0401768)
(-187052.5 0 1.0404474)
(-187079.2 0 1.0407181)
(-187105.9 0 2.0819779)
(-187132.5 0 2.0825198)
(-187159.1 0 2.0830621)
(-187185.8 0 1.0418023)
(-187212.6 0 1.0420737)
(-187239.4 0 1.0423453)
(-187266.1 0 2.0852339)
(-187292.8 0 2.0857776)
(-187319.5 0 2.0863216)
(-187346.3 0 1.0434329)
(-187373.2 0 1.0437052)
(-187400 0 1.0439775)
(-187426.8 0 1.0442501)
(-187453.7 0 1.0445228)
(-187480.6 0 2.0895912)
(-187507.4 0 2.0901372)
(-187534.3 0 2.0906834)
(-187561.2 0 2.0912299)
(-187588.1 0 2.0917767)
(-187615.1 0 2.0923238)
(-187642 0 2.0928712)
(-187669 0 2.0934188)
(-187695.9 0 2.0939668)
(-187722.9 0 1.0472575)
(-187750 0 1.0475318)
(-187777.1 0 2.0956123)
(-187803.9 0 1.0480807)
(-187831.3 0 1.0483554)
(-187857.9 0 1.0486302)
(-187885.7 0 1.0489052)
(-187911.7 0 1.0491803)
(-187940.57 0 1.0494556)
(-187965.04 0 1.6795696)
(-187996.38 0 1.1550072)
(-188016.92 0 2.1005645)
(-188054.5 0 0.63033486)
(-188065.39 0 2.7321687)
(-188118.27 0 -0.52555512)
(-188104.8 0 4.6261007)
(-188196.22 0 -3.7859866)
(-188115.73 0 9.6778435)
(-188314.49 0 -14.204919)
(-187963.71 0 22.775951)
(-172722.99 0 -34394.299)
(-252036.99 0 -4061.5231)
(-182886.2 0 -5923.7023)
(-188866.53 0 160.14012)
(-179994.23 0 -670.7546)
(-183886.45 0 290.3993)
(-182013.7 0 -120.19532)
(-183573.17 0 120.22542)
(-182886.88 0 -50.106476)
(-183480.07 0 40.095226)
(-183201.95 0 -20.052638)
(-183441.03 0 20.057666)
(-183339.98 0 -10.031348)
(-183447.01 0 10.033864)
(-183419.99 0 0)
(-183478 0 10.038901)
(-183482 0 0)
(-183520 0 10.043942)
(-183537 0 0)
(-183566 0 10.048989)
(-183587 0 0)
(-183615 0 0)
(-183638 0 0)
(-183663 0 0)
(-183688 0 0)
(-183713 0 10.064159)
(-183737 0 0)
(-183762 0 0)
(-183787 0 0)
(-183812 0 0)
(-183837 0 0)
(-183862 0 0)
(-183886 0 0)
(-183911 0 0)
(-183937 0 0)
(-183961 0 10.089545)
(-183986 0 10.09209)
(-184011 0 10.094637)
(-184036 0 10.097185)
(-184061 0 10.099735)
(-184086 0 10.102286)
(-184111 0 10.104838)
(-184136 0 0)
(-184161 0 10.109946)
(-184186 0 0)
(-184211 0 10.115059)
(-184236 0 0)
(-184262 0 10.120177)
(-184286 0 10.122738)
(-184311 0 0)
(-184336 0 0)
(-184362 0 10.130429)
(-184387 0 10.132996)
(-184411 0 0)
(-184437 0 10.138132)
(-184463 0 0)
(-184488 0 0)
(-184512 0 0)
(-184538 0 10.148421)
(-184564 0 0)
(-184588 0 10.153573)
(-184613 0 0)
(-184639 0 10.15873)
(-184665 0 0)
(-184690 0 10.163893)
(-184715 0 0)
(-184740 0 10.169061)
(-184765 0 0)
(-184791 0 0)
(-184817 0 0)
(-184842 0 10.179412)
(-184867 0 0)
(-184892 0 10.184596)
(-184918 0 10.18719)
(-184944 0 0)
(-184969 0 0)
(-184994 0 10.194979)
(-185020 0 0)
(-185046 0 10.200179)
(-185071 0 10.20278)
(-185096 0 10.205383)
(-185122 0 0)
(-185148 0 10.210594)
(-185173 0 0)
(-185199 0 0)
(-185224 0 10.218419)
(-185250 0 0)
(-185276 0 10.223642)
(-185301 0 0)
(-185327 0 0)
(-185352 0 10.231487)
(-185378 0 10.234105)
(-185404.5 0 0)
(-185429.8 0 4.0957379)
(-185455.4 0 4.0967866)
(-185481.2 0 4.0978359)
(-185507 0 4.0988856)
(-185532.7 0 4.0999359)
(-185558.6 0 4.1009868)
(-185584.4 0 4.1020382)
(-185610.1 0 4.1030902)
(-185636 0 4.1041426)
(-185661.9 0 4.1051956)
(-185687.7 0 4.1062492)
(-185713.5 0 4.1073033)
(-185739.5 0 4.1083579)
(-185765.4 0 4.1094131)
(-185791.2 0 4.1104688)
(-185817.2 0 4.1115251)
(-185843.2 0 4.112582)
(-185869.2 0 4.1136393)
(-185895.1 0 4.1146972)
(-185921.1 0 4.1157556)
(-185947.2 0 3.087611)
(-185973.1 0 4.1178742)
(-185999.1 0 4.1189342)
(-186025.3 0 4.1199948)
(-186051.3 0 4.121056)
(-186077.3 0 4.1221177)
(-186103.5 0 4.12318)
(-186129.6 0 4.1242428)
(-186155.6 0 4.1253062)
(-186181.8 0 4.1263701)
(-186208 0 4.1274345)
(-186234.1 0 4.1284996)
(-186260.3 0 4.1295651)
(-186286.5 0 4.1306312)
(-186312.7 0 4.1316978)
(-186339 0 4.1327651)
(-186365.2 0 4.1338328)
(-186391.4 0 4.1349012)
(-186417.7 0 3.1019775)
(-186444 0 4.1370394)
(-186470.3 0 4.1381094)
(-186496.6 0 3.1043849)
(-186522.9 0 4.140251)
(-186549.2 0 4.1413226)
(-186575.6 0 4.1423948)
(-186602 0 4.1434676)
(-186628.4 0 4.1445409)
(-186654.8 0 3.109211)
(-186681.2 0 4.1466892)
(-186707.6 0 4.1477641)
(-186734 0 4.1488396)
(-186760.5 0 4.1499157)
(-186787 0 3.1132443)
(-186813.5 0 4.1520696)
(-186840 0 4.1531473)
(-186866.5 0 4.1542256)
(-186893 0 4.1553045)
(-186919.5 0 4.156384)
(-186946.2 0 4.157464)
(-186972.8 0 4.1585445)
(-186999.3 0 4.1596256)
(-187025.9 0 4.1607073)
(-187052.5 0 4.1617896)
(-187079.1 0 3.1221543)
(-187105.8 0 4.1639558)
(-187132.5 0 4.1650397)
(-187159.2 0 4.1661242)
(-187185.9 0 3.1254069)
(-187212.6 0 3.1262212)
(-187239.3 0 4.1693811)
(-187266 0 4.1704679)
(-187292.8 0 4.1715552)
(-187319.6 0 4.1726431)
(-187346.4 0 3.1302987)
(-187373.2 0 4.1748206)
(-187400 0 4.1759102)
(-187426.8 0 4.1770004)
(-187453.6 0 4.1780911)
(-187480.5 0 4.1791825)
(-187507.4 0 4.1802743)
(-187534.3 0 4.1813668)
(-187561.2 0 4.1824598)
(-187588.1 0 4.1835534)
(-187615.1 0 4.1846476)
(-187642 0 4.1857423)
(-187669 0 4.1868376)
(-187696 0 4.1879335)
(-187723 0 4.18903)
(-187749.9 0 3.1425953)
(-187777.1 0 4.1912246)
(-187804 0 4.1923228)
(-187831.3 0 4.1934216)
(-187857.9 0 4.1945209)
(-187885.7 0 3.1467156)
(-187911.7 0 4.1967213)
(-187940.51 0 3.1483668)
(-187965.03 0 4.3038971)
(-187996.34 0 3.5700223)
(-188016.97 0 4.8312984)
(-188054.44 0 2.8365069)
(-188065.5 0 5.7795875)
(-188118.09 0 1.1562213)
(-188105.11 0 8.5162308)
(-188195.74 0 -3.575654)
(-188116.72 0 15.779093)
(-188313.25 0 -20.518216)
(-187964.53 0 35.932114)
(-171009.16 0 -52526.566)
(-250247.35 0 -10563.961)
(-182508.48 0 -7554.7217)
(-188576.53 0 -470.41161)
(-179971.25 0 -570.64197)
(-183861.45 0 210.28915)
(-182018.69 0 -20.032553)
(-183572.17 0 100.18785)
(-182890.88 0 -10.021295)
(-183479.07 0 30.07142)
(-183202.95 0 0)
(-183441.03 0 10.028833)
(-183338.98 0 0)
(-183447.01 0 10.033864)
(-183420.99 0 0)
(-183478 0 0)
(-183482 0 0)
(-183520 0 0)
(-183536 0 0)
(-183566 0 10.048989)
(-183588 0 0)
(-183615 0 0)
(-183638 0 10.056568)
(-183663 0 10.059097)
(-183687 0 0)
(-183713 0 10.064159)
(-183738 0 10.066692)
(-183762 0 10.069226)
(-183787 0 0)
(-183812 0 0)
(-183837 0 0)
(-183862 0 10.079375)
(-183886 0 10.081916)
(-183911 0 0)
(-183936 0 0)
(-183961 0 10.089545)
(-183986 0 0)
(-184011 0 10.094637)
(-184036 0 0)
(-184061 0 10.099735)
(-184086 0 0)
(-184111 0 10.104838)
(-184136 0 0)
(-184161 0 10.109946)
(-184186 0 0)
(-184211 0 10.115059)
(-184236 0 0)
(-184261 0 10.120177)
(-184287 0 10.122738)
(-184312 0 10.125301)
(-184336 0 10.127864)
(-184361 0 0)
(-184387 0 10.132996)
(-184412 0 0)
(-184437 0 0)
(-184463 0 0)
(-184488 0 10.143274)
(-184512 0 10.145847)
(-184538 0 0)
(-184563 0 10.150996)
(-184588 0 10.153573)
(-184614 0 0)
(-184639 0 0)
(-184664 0 0)
(-184690 0 10.163893)
(-184715 0 10.166476)
(-184740 0 10.169061)
(-184766 0 10.171647)
(-184791 0 0)
(-184816 0 10.176822)
(-184842 0 10.179412)
(-184867 0 10.182003)
(-184892 0 10.184596)
(-184919 0 0)
(-184944 0 10.189785)
(-184968 0 10.192381)
(-184994 0 10.194979)
(-185020 0 0)
(-185045 0 10.200179)
(-185071 0 10.20278)
(-185097 0 10.205383)
(-185122 0 0)
(-185148 0 10.210594)
(-185174 0 10.213201)
(-185198 0 10.215809)
(-185224 0 10.218419)
(-185250 0 0)
(-185276 0 10.223642)
(-185302 0 10.226256)
(-185326 0 10.228871)
(-185352 0 10.231487)
(-185379 0 0)
(-185404.2 0 10.236724)
(-185429.5 0 6.1436068)
(-185455.5 0 6.1451799)
(-185481.2 0 6.1467537)
(-185507 0 6.1483284)
(-185532.8 0 6.1499039)
(-185558.5 0 6.1514802)
(-185584.3 0 7.1785668)
(-185610.2 0 6.1546352)
(-185636 0 6.156214)
(-185661.8 0 6.1577935)
(-185687.7 0 6.1593738)
(-185713.6 0 6.160955)
(-185739.5 0 6.1625369)
(-185765.4 0 7.191473)
(-185791.3 0 6.1657033)
(-185817.2 0 6.1672877)
(-185843.2 0 6.1688729)
(-185869.1 0 6.1704589)
(-185895.1 0 6.1720458)
(-185921.2 0 6.1736335)
(-185947.1 0 6.1752219)
(-185973.1 0 6.1768112)
(-185999.2 0 6.1784013)
(-186025.2 0 6.1799923)
(-186051.3 0 7.2118481)
(-186077.4 0 6.1831766)
(-186103.4 0 6.18477)
(-186129.5 0 6.1863643)
(-186155.7 0 6.1879593)
(-186181.8 0 6.1895551)
(-186208 0 6.1911518)
(-186234.2 0 6.1927493)
(-186260.3 0 6.1943477)
(-186286.5 0 6.1959468)
(-186312.7 0 6.1975468)
(-186338.9 0 6.1991476)
(-186365.2 0 6.2007493)
(-186391.5 0 6.2023517)
(-186417.7 0 6.203955)
(-186443.9 0 6.2055592)
(-186470.3 0 6.2071641)
(-186496.6 0 6.2087699)
(-186522.9 0 6.2103765)
(-186549.3 0 6.211984)
(-186575.6 0 6.2135922)
(-186602 0 6.2152014)
(-186628.4 0 6.2168113)
(-186654.7 0 6.2184221)
(-186681.1 0 6.2200337)
(-186707.6 0 6.2216461)
(-186734.1 0 6.2232594)
(-186760.6 0 6.2248736)
(-186787 0 6.2264885)
(-186813.4 0 6.2281043)
(-186839.9 0 6.229721)
(-186866.5 0 6.2313384)
(-186893.1 0 6.2329568)
(-186919.6 0 6.2345759)
(-186946.1 0 6.2361959)
(-186972.7 0 7.2774529)
(-186999.3 0 7.2793449)
(-187025.9 0 6.2410609)
(-187052.6 0 6.2426843)
(-187079.2 0 6.2443086)
(-187105.8 0 6.2459336)
(-187132.5 0 6.2475596)
(-187159.2 0 6.2491863)
(-187185.9 0 6.2508139)
(-187212.5 0 6.2524424)
(-187239.3 0 6.2540717)
(-187266.1 0 6.2557018)
(-187292.8 0 6.2573328)
(-187319.6 0 6.2589647)
(-187346.3 0 6.2605974)
(-187373.1 0 6.2622309)
(-187400 0 6.2638653)
(-187426.8 0 6.2655006)
(-187453.7 0 6.2671367)
(-187480.6 0 6.2687737)
(-187507.4 0 6.2704115)
(-187534.3 0 6.2720502)
(-187561.2 0 6.2736897)
(-187588.1 0 6.2753301)
(-187615.1 0 6.2769714)
(-187642 0 6.2786135)
(-187669 0 6.2802564)
(-187695.9 0 6.2819003)
(-187723 0 6.283545)
(-187750 0 6.2851905)
(-187777 0 6.2868369)
(-187803.9 0 6.2884842)
(-187831.3 0 6.2901324)
(-187858 0 6.2917814)
(-187885.7 0 6.2934312)
(-187911.7 0 6.295082)
(-187940.56 0 6.2967336)
(-187965 0 6.5083322)
(-187996.33 0 6.1950387)
(-188016.99 0 6.7218065)
(-188054.41 0 5.8831254)
(-188065.55 0 7.3558387)
(-188118.01 0 4.9402181)
(-188105.25 0 8.7265081)
(-188195.53 0 2.1033259)
(-188117.34 0 12.728468)
(-188312.58 0 -11.784822)
(-187965.17 0 27.259571)
(-168532.56 0 -73969.246)
(-247540.84 0 -15405.777)
(-181877.92 0 -10206.379)
(-188168.54 0 -770.67434)
(-179926.28 0 -700.78839)
(-183831.43 0 270.37176)
(-182024.69 0 0)
(-183572.17 0 120.22542)
(-182893.88 0 10.021295)
(-183479.07 0 50.119033)
(-183203.95 0 0)
(-183441.03 0 20.057666)
(-183339.98 0 10.031348)
(-183447.01 0 10.033864)
(-183420.99 0 10.036382)
(-183478 0 10.038901)
(-183481.99 0 10.041421)
(-183520 0 10.043942)
(-183536 0 10.046465)
(-183566 0 0)
(-183588 0 10.051514)
(-183614 0 10.05404)
(-183637 0 10.056568)
(-183664 0 10.059097)
(-183688 0 10.061627)
(-183712 0 0)
(-183737 0 10.066692)
(-183763 0 10.069226)
(-183788 0 10.071761)
(-183812 0 10.074298)
(-183836 0 10.076836)
(-183861 0 10.079375)
(-183887 0 10.081916)
(-183912 0 10.084457)
(-183936 0 10.087)
(-183961 0 10.089545)
(-183986 0 10.09209)
(-184011 0 0)
(-184036 0 10.097185)
(-184061 0 0)
(-184086 0 10.102286)
(-184111 0 0)
(-184136 0 10.107391)
(-184161 0 10.109946)
(-184186 0 10.112502)
(-184211 0 10.115059)
(-184236 0 10.117617)
(-184261 0 0)
(-184286 0 10.122738)
(-184311 0 10.125301)
(-184337 0 10.127864)
(-184362 0 10.130429)
(-184387 0 10.132996)
(-184412 0 10.135563)
(-184437 0 10.138132)
(-184462 0 10.140702)
(-184487 0 10.143274)
(-184513 0 10.145847)
(-184538 0 10.148421)
(-184563 0 10.150996)
(-184589 0 0)
(-184614 0 10.156151)
(-184639 0 10.15873)
(-184664 0 10.161311)
(-184689 0 0)
(-184715 0 10.166476)
(-184740 0 10.169061)
(-184766 0 10.171647)
(-184791 0 10.174234)
(-184816 0 10.176822)
(-184842 0 10.179412)
(-184867 0 10.182003)
(-184893 0 0)
(-184918 0 10.18719)
(-184943 0 10.189785)
(-184969 0 10.192381)
(-184995 0 0)
(-185020 0 10.197578)
(-185045 0 0)
(-185071 0 0)
(-185097 0 10.205383)
(-185122 0 10.207988)
(-185147 0 0)
(-185173 0 10.213201)
(-185199 0 10.215809)
(-185225 0 10.218419)
(-185250 0 10.22103)
(-185275 0 10.223642)
(-185301 0 10.226256)
(-185327 0 10.228871)
(-185353 0 0)
(-185378 0 10.234105)
(-185403.9 0 10.236724)
(-185430.2 0 8.1914758)
(-185455.4 0 8.1935732)
(-185481.2 0 9.2201306)
(-185507 0 8.1977712)
(-185532.7 0 9.2248558)
(-185558.5 0 9.2272203)
(-185584.4 0 8.2040764)
(-185610.2 0 8.2061803)
(-185636 0 9.2343209)
(-185661.9 0 8.2103913)
(-185687.7 0 8.2124984)
(-185713.5 0 8.2146066)
(-185739.4 0 9.2438054)
(-185765.4 0 8.2188263)
(-185791.3 0 9.2485549)
(-185817.2 0 9.2509315)
(-185843.2 0 9.2533094)
(-185869.2 0 9.2556884)
(-185895.1 0 8.2293944)
(-185921.1 0 9.2604501)
(-185947.2 0 9.2628329)
(-185973.1 0 8.2357483)
(-185999.1 0 9.267602)
(-186025.2 0 9.2699884)
(-186051.3 0 8.242112)
(-186077.4 0 9.2747649)
(-186103.5 0 9.277155)
(-186129.6 0 8.2484856)
(-186155.6 0 8.2506124)
(-186181.8 0 9.2843327)
(-186208 0 8.2548691)
(-186234.1 0 9.289124)
(-186260.3 0 9.2915215)
(-186286.5 0 9.2939202)
(-186312.7 0 9.2963202)
(-186339 0 9.2987214)
(-186365.2 0 8.2676657)
(-186391.4 0 9.3035276)
(-186417.7 0 9.3059325)
(-186444 0 9.3083387)
(-186470.3 0 8.2762188)
(-186496.6 0 9.3131548)
(-186522.9 0 8.280502)
(-186549.2 0 9.3179759)
(-186575.6 0 9.3203883)
(-186602 0 9.322802)
(-186628.4 0 9.3252169)
(-186654.8 0 9.3276331)
(-186681.2 0 8.2933782)
(-186707.6 0 8.2955282)
(-186734 0 8.2976793)
(-186760.5 0 9.3373103)
(-186787 0 9.3397328)
(-186813.5 0 9.3421565)
(-186840 0 8.3062946)
(-186866.5 0 8.3084513)
(-186893 0 8.310609)
(-186919.5 0 9.3518639)
(-186946.1 0 9.3542939)
(-186972.7 0 8.317089)
(-186999.4 0 8.3192513)
(-187026 0 8.3214146)
(-187052.5 0 8.3235791)
(-187079.1 0 9.3664629)
(-187105.8 0 9.3689005)
(-187132.5 0 9.3713393)
(-187159.2 0 9.3737795)
(-187185.9 0 9.3762209)
(-187212.6 0 9.3786635)
(-187239.3 0 8.3387622)
(-187266 0 9.3835527)
(-187292.8 0 9.3859992)
(-187319.6 0 9.388447)
(-187346.4 0 9.390896)
(-187373.2 0 8.3496412)
(-187400 0 8.3518204)
(-187426.8 0 8.3540008)
(-187453.6 0 8.3561823)
(-187480.5 0 9.4031605)
(-187507.4 0 9.4056172)
(-187534.3 0 9.4080753)
(-187561.2 0 9.4105346)
(-187588.1 0 9.4129952)
(-187615.1 0 9.415457)
(-187642 0 9.4179202)
(-187669 0 9.4203847)
(-187696 0 9.4228504)
(-187723 0 8.37806)
(-187749.9 0 9.4277858)
(-187777.1 0 9.4302554)
(-187804 0 8.3846456)
(-187831.3 0 8.3868431)
(-187857.9 0 8.3890418)
(-187885.7 0 9.4401468)
(-187911.7 0 8.3934426)
(-187940.49 0 9.4451004)
(-187965.04 0 9.2376329)
(-187996.32 0 8.8200551)
(-188017 0 9.4525404)
(-188054.38 0 8.5095207)
(-188065.59 0 10.088007)
(-188117.96 0 7.4628827)
(-188105.38 0 11.460113)
(-188195.36 0 4.2066518)
(-188118.04 0 15.673899)
(-188311.87 0 -12.94226)
(-187965.99 0 33.606104)
(-165161.2 0 -96202.025)
(-243872.42 0 -19477.304)
(-181046.51 0 -12998.124)
(-187626.53 0 -910.79695)
(-179867.32 0 -880.99111)
(-183791.41 0 360.49568)
(-182033.7 0 0)
(-183571.16 0 160.30056)
(-182897.88 0 10.021295)
(-183480.06 0 60.142839)
(-183205.95 0 0)
(-183440.02 0 30.086499)
(-183339.98 0 10.031348)
(-183447.01 0 20.067729)
(-183420.99 0 10.036382)
(-183478 0 20.077801)
(-183481.99 0 10.041421)
(-183520 0 10.043942)
(-183537 0 20.09293)
(-183566 0 10.048989)
(-183587 0 10.051514)
(-183615 0 10.05404)
(-183638 0 10.056568)
(-183663 0 10.059097)
(-183688 0 10.061627)
(-183713 0 10.064159)
(-183737 0 10.066692)
(-183762 0 10.069226)
(-183787 0 10.071761)
(-183812 0 20.148596)
(-183837 0 10.076836)
(-183862 0 10.079375)
(-183886 0 10.081916)
(-183911 0 10.084457)
(-183936 0 10.087)
(-183961 0 10.089545)
(-183987 0 10.09209)
(-184011 0 10.094637)
(-184036 0 10.097185)
(-184061 0 10.099735)
(-184086 0 10.102286)
(-184111 0 10.104838)
(-184135 0 10.107391)
(-184161 0 10.109946)
(-184186 0 10.112502)
(-184211 0 10.115059)
(-184237 0 10.117617)
(-184261 0 10.120177)
(-184286 0 10.122738)
(-184312 0 10.125301)
(-184336 0 10.127864)
(-184361 0 10.130429)
(-184387 0 10.132996)
(-184412 0 20.271126)
(-184437 0 10.138132)
(-184463 0 10.140702)
(-184488 0 10.143274)
(-184512 0 10.145847)
(-184538 0 10.148421)
(-184564 0 10.150996)
(-184588 0 10.153573)
(-184613 0 20.312302)
(-184639 0 10.15873)
(-184665 0 20.322622)
(-184690 0 10.163893)
(-184714 0 10.166476)
(-184740 0 10.169061)
(-184766 0 10.171646)
(-184791 0 20.348468)
(-184816 0 10.176822)
(-184842 0 10.179412)
(-184868 0 10.182003)
(-184892 0 10.184596)
(-184918 0 10.18719)
(-184944 0 10.189785)
(-184969 0 10.192381)
(-184994 0 10.194979)
(-185020 0 10.197578)
(-185046 0 10.200178)
(-185070 0 10.20278)
(-185096 0 10.205383)
(-185123 0 10.207988)
(-185148 0 10.210594)
(-185173 0 10.213201)
(-185198 0 10.215809)
(-185224 0 10.218419)
(-185250 0 20.44206)
(-185276 0 10.223642)
(-185302 0 10.226256)
(-185327 0 10.228871)
(-185352 0 10.231487)
(-185378 0 10.234105)
(-185404.4 0 10.236724)
(-185429.7 0 11.263279)
(-185455.4 0 11.266163)
(-185481.2 0 11.269049)
(-185507 0 11.271935)
(-185532.7 0 11.274824)
(-185558.6 0 11.277714)
(-185584.4 0 11.280605)
(-185610.1 0 11.283498)
(-185636 0 11.286392)
(-185661.9 0 11.289288)
(-185687.7 0 12.318748)
(-185713.5 0 11.295084)
(-185739.5 0 11.297984)
(-185765.4 0 11.300886)
(-185791.2 0 11.303789)
(-185817.2 0 11.306694)
(-185843.2 0 11.3096)
(-185869.2 0 11.312508)
(-185895.1 0 11.315417)
(-185921.1 0 11.318328)
(-185947.2 0 11.32124)
(-185973.1 0 12.353622)
(-185999.1 0 11.327069)
(-186025.3 0 11.329986)
(-186051.3 0 11.332904)
(-186077.3 0 11.335824)
(-186103.5 0 11.338745)
(-186129.6 0 11.341668)
(-186155.6 0 11.344592)
(-186181.8 0 11.347518)
(-186208 0 11.350445)
(-186234.1 0 11.353374)
(-186260.3 0 11.356304)
(-186286.5 0 11.359236)
(-186312.7 0 11.362169)
(-186339 0 11.365104)
(-186365.2 0 11.36804)
(-186391.4 0 11.370978)
(-186417.7 0 11.373918)
(-186444 0 11.376858)
(-186470.3 0 11.379801)
(-186496.6 0 11.382745)
(-186522.9 0 11.38569)
(-186549.2 0 11.388637)
(-186575.6 0 11.391586)
(-186602 0 11.394536)
(-186628.4 0 11.397487)
(-186654.8 0 11.40044)
(-186681.2 0 11.403395)
(-186707.6 0 11.406351)
(-186734 0 11.409309)
(-186760.5 0 11.412268)
(-186787 0 11.415229)
(-186813.5 0 11.418191)
(-186840 0 11.421155)
(-186866.5 0 11.42412)
(-186893 0 11.427087)
(-186919.5 0 11.430056)
(-186946.2 0 11.433026)
(-186972.8 0 11.435997)
(-186999.3 0 11.43897)
(-187025.9 0 12.482122)
(-187052.5 0 11.444921)
(-187079.1 0 11.447899)
(-187105.8 0 11.450878)
(-187132.5 0 11.453859)
(-187159.2 0 11.456842)
(-187185.9 0 11.459825)
(-187212.6 0 11.462811)
(-187239.3 0 11.465798)
(-187266 0 11.468787)
(-187292.8 0 11.471777)
(-187319.6 0 11.474769)
(-187346.4 0 11.477762)
(-187373.2 0 11.480757)
(-187400 0 11.483753)
(-187426.8 0 11.486751)
(-187453.6 0 11.489751)
(-187480.5 0 11.492752)
(-187507.4 0 11.495754)
(-187534.3 0 11.498759)
(-187561.2 0 11.501764)
(-187588.1 0 11.504772)
(-187615.1 0 11.507781)
(-187642 0 11.510791)
(-187669 0 11.513803)
(-187696 0 11.516817)
(-187723 0 11.519832)
(-187749.9 0 11.522849)
(-187777.1 0 11.525868)
(-187804 0 11.528888)
(-187831.3 0 11.531909)
(-187857.9 0 12.583563)
(-187885.7 0 11.537957)
(-187911.7 0 12.590164)
(-187940.48 0 11.544012)
(-187965.06 0 11.86196)
(-187996.31 0 11.23507)
(-188017.02 0 12.183274)
(-188054.35 0 10.820749)
(-188065.65 0 12.925259)
(-188117.88 0 9.5651031)
(-188105.56 0 14.929689)
(-188195.13 0 5.1531484)
(-188118.97 0 20.618014)
(-188310.88 0 -17.045903)
(-187967.13 0 44.415209)
(-160871.07 0 -118774.85)
(-239222.12 0 -23378.767)
(-180023.21 0 -15559.725)
(-186957.51 0 -1000.8758)
(-179799.37 0 -1021.1488)
(-183743.38 0 450.6196)
(-182044.7 0 0)
(-183571.15 0 190.35692)
(-182903.88 0 0)
(-183480.06 0 60.142839)
(-183206.95 0 0)
(-183440.02 0 30.086499)
(-183340.98 0 0)
(-183447.01 0 20.067729)
(-183420.99 0 10.036382)
(-183478 0 20.077801)
(-183482.99 0 10.041421)
(-183519 0 10.043942)
(-183536 0 10.046465)
(-183567 0 20.097978)
(-183588 0 10.051514)
(-183614 0 10.05404)
(-183637 0 20.113136)
(-183664 0 10.059097)
(-183688 0 10.061627)
(-183712 0 20.128318)
(-183737 0 10.066692)
(-183763 0 10.069226)
(-183787 0 10.071761)
(-183812 0 10.074298)
(-183837 0 10.076836)
(-183861 0 20.15875)
(-183887 0 20.163831)
(-183912 0 10.084457)
(-183936 0 10.087)
(-183961 0 10.089545)
(-183986 0 10.09209)
(-184011 0 20.189274)
(-184036 0 10.097185)
(-184061 0 20.19947)
(-184086 0 10.102286)
(-184111 0 20.209675)
(-184136 0 10.107391)
(-184161 0 10.109946)
(-184186 0 10.112502)
(-184211 0 10.115059)
(-184236 0 10.117617)
(-184261 0 20.240354)
(-184286 0 10.122738)
(-184311 0 20.250601)
(-184337 0 20.255729)
(-184362 0 10.130429)
(-184386 0 10.132996)
(-184412 0 10.135563)
(-184438 0 10.138132)
(-184462 0 10.140702)
(-184487 0 20.286547)
(-184513 0 20.291693)
(-184538 0 10.148421)
(-184563 0 20.301992)
(-184588 0 20.307146)
(-184614 0 10.156151)
(-184639 0 10.15873)
(-184664 0 10.161311)
(-184690 0 20.327786)
(-184715 0 20.332952)
(-184740 0 10.169061)
(-184765 0 10.171647)
(-184791 0 10.174234)
(-184817 0 10.176822)
(-184842 0 10.179412)
(-184867 0 20.364007)
(-184893 0 20.369192)
(-184918 0 10.18719)
(-184943 0 20.379569)
(-184969 0 20.384762)
(-184995 0 20.389958)
(-185020 0 10.197578)
(-185045 0 20.400357)
(-185071 0 20.405561)
(-185097 0 10.205383)
(-185122 0 10.207988)
(-185147 0 20.421187)
(-185173 0 20.426401)
(-185199 0 20.431618)
(-185224 0 10.218419)
(-185250 0 10.22103)
(-185276 0 10.223642)
(-185301 0 20.452512)
(-185327 0 20.457742)
(-185353 0 20.462975)
(-185378 0 10.234105)
(-185403.8 0 10.236724)
(-185430.1 0 14.335083)
(-185455.4 0 14.338753)
(-185481.2 0 13.317966)
(-185507 0 14.3461)
(-185532.7 0 13.324792)
(-185558.5 0 13.328207)
(-185584.4 0 14.357134)
(-185610.2 0 14.360815)
(-185636 0 13.338464)
(-185661.8 0 14.368185)
(-185687.7 0 14.371872)
(-185713.6 0 14.375562)
(-185739.4 0 13.352163)
(-185765.4 0 14.382946)
(-185791.3 0 13.359024)
(-185817.2 0 13.362457)
(-185843.2 0 13.365891)
(-185869.2 0 13.369328)
(-185895.1 0 14.40144)
(-185921.1 0 13.376206)
(-185947.1 0 14.408851)
(-185973.1 0 14.41256)
(-185999.2 0 13.386536)
(-186025.2 0 13.389983)
(-186051.3 0 14.423696)
(-186077.4 0 13.396883)
(-186103.5 0 13.400335)
(-186129.6 0 14.43485)
(-186155.6 0 14.438572)
(-186181.8 0 13.410703)
(-186208 0 14.446021)
(-186234.1 0 13.417624)
(-186260.3 0 13.421087)
(-186286.5 0 13.424551)
(-186312.7 0 13.428018)
(-186339 0 13.431486)
(-186365.2 0 14.468415)
(-186391.4 0 13.438429)
(-186417.7 0 13.441903)
(-186444 0 13.445378)
(-186470.3 0 14.483383)
(-186496.6 0 14.48713)
(-186522.9 0 14.490878)
(-186549.2 0 13.459299)
(-186575.6 0 13.462783)
(-186602 0 13.46627)
(-186628.4 0 13.469758)
(-186654.8 0 14.509652)
(-186681.2 0 14.513412)
(-186707.6 0 14.517174)
(-186734 0 14.520939)
(-186760.5 0 13.487226)
(-186787 0 14.528473)
(-186813.5 0 13.494226)
(-186840 0 14.536016)
(-186866.5 0 14.53979)
(-186893 0 14.543566)
(-186919.5 0 13.508248)
(-186946.1 0 13.511758)
(-186972.7 0 14.554906)
(-186999.3 0 14.55869)
(-187026 0 14.562476)
(-187052.6 0 14.566263)
(-187079.1 0 14.570053)
(-187105.8 0 13.532856)
(-187132.5 0 13.536379)
(-187159.2 0 13.539904)
(-187185.9 0 14.585232)
(-187212.6 0 13.546958)
(-187239.3 0 14.592834)
(-187266 0 13.554021)
(-187292.8 0 13.557554)
(-187319.6 0 13.56109)
(-187346.4 0 14.608061)
(-187373.2 0 14.611872)
(-187400 0 14.615686)
(-187426.8 0 14.619501)
(-187453.6 0 14.623319)
(-187480.5 0 13.582343)
(-187507.4 0 13.585892)
(-187534.3 0 13.589442)
(-187561.2 0 13.592994)
(-187588.1 0 13.596549)
(-187615.1 0 13.600105)
(-187642 0 13.603663)
(-187669 0 13.607222)
(-187696 0 13.610784)
(-187723 0 14.661605)
(-187749.9 0 14.665445)
(-187777.1 0 13.62148)
(-187804 0 14.67313)
(-187831.2 0 14.676975)
(-187857.9 0 14.680823)
(-187885.7 0 14.684673)
(-187911.7 0 14.688525)
(-187940.56 0 13.642923)
(-187965.07 0 14.486288)
(-187996.29 0 13.755086)
(-188017.04 0 14.80898)
(-188054.3 0 13.131976)
(-188065.71 0 15.867595)
(-188117.77 0 11.667324)
(-188105.8 0 18.294125)
(-188194.82 0 6.4151439)
(-188120.15 0 25.351742)
(-188309.61 0 -20.833881)
(-187968.59 0 54.740166)
(-155635.25 0 -141977.75)
(-233552.91 0 -27110.166)
(-178811 0 -17881.176)
(-186173.47 0 -1060.9283)
(-179722.42 0 -1121.2614)
(-183689.35 0 540.74352)
(-182059.7 0 0)
(-183571.14 0 220.41327)
(-182910.88 0 0)
(-183480.06 0 80.190452)
(-183208.95 0 0)
(-183440.02 0 30.086499)
(-183340.98 0 10.031348)
(-183446.01 0 20.067729)
(-183420.99 0 10.036382)
(-183478 0 20.077801)
(-183482.99 0 20.082842)
(-183520 0 20.087885)
(-183536 0 10.046465)
(-183566 0 20.097978)
(-183588 0 20.103028)
(-183614 0 20.108081)
(-183638 0 10.056568)
(-183664 0 10.059097)
(-183687 0 20.123255)
(-183713 0 20.128318)
(-183738 0 10.066692)
(-183762 0 10.069226)
(-183787 0 20.143523)
(-183812 0 10.074298)
(-183836 0 20.153672)
(-183861 0 10.079375)
(-183887 0 10.081916)
(-183912 0 20.168915)
(-183936 0 20.174001)
(-183961 0 20.179089)
(-183986 0 20.184181)
(-184011 0 20.189274)
(-184036 0 20.194371)
(-184061 0 20.19947)
(-184086 0 20.204571)
(-184111 0 20.209675)
(-184136 0 20.214782)
(-184161 0 20.219891)
(-184186 0 20.225003)
(-184211 0 20.230118)
(-184236 0 20.235235)
(-184261 0 20.240354)
(-184286 0 20.245476)
(-184311 0 10.125301)
(-184337 0 10.127864)
(-184362 0 20.260859)
(-184387 0 20.265991)
(-184412 0 10.135563)
(-184437 0 20.276264)
(-184462 0 20.281405)
(-184487 0 20.286548)
(-184513 0 10.145847)
(-184538 0 20.296841)
(-184563 0 20.301992)
(-184589 0 20.307146)
(-184614 0 10.156151)
(-184639 0 20.31746)
(-184664 0 10.161311)
(-184689 0 20.327786)
(-184715 0 20.332952)
(-184741 0 20.338121)
(-184766 0 10.171647)
(-184791 0 10.174234)
(-184816 0 10.176822)
(-184841 0 20.358824)
(-184867 0 20.364007)
(-184893 0 20.369192)
(-184918 0 20.374379)
(-184943 0 20.37957)
(-184969 0 10.192381)
(-184995 0 20.389958)
(-185020 0 20.395156)
(-185045 0 20.400357)
(-185071 0 20.40556)
(-185097 0 20.410767)
(-185122 0 20.415976)
(-185147 0 20.421187)
(-185173 0 10.213201)
(-185199 0 20.431618)
(-185225 0 20.436837)
(-185250 0 10.22103)
(-185275 0 20.447284)
(-185301 0 20.452512)
(-185327 0 10.228871)
(-185353 0 20.462975)
(-185379 0 20.46821)
(-185404 0 10.236724)
(-185429.3 0 16.382952)
(-185455.5 0 16.387146)
(-185481.2 0 16.391343)
(-185507 0 16.395542)
(-185532.8 0 16.399744)
(-185558.5 0 16.403947)
(-185584.3 0 16.408153)
(-185610.2 0 16.412361)
(-185636 0 16.41657)
(-185661.8 0 16.420783)
(-185687.7 0 15.398434)
(-185713.6 0 16.429213)
(-185739.5 0 16.433432)
(-185765.4 0 16.437652)
(-185791.3 0 16.441875)
(-185817.2 0 16.4461)
(-185843.2 0 16.450328)
(-185869.1 0 16.454557)
(-185895.1 0 16.458789)
(-185921.1 0 16.463022)
(-185947.1 0 16.467258)
(-185973.2 0 15.442028)
(-185999.2 0 16.475737)
(-186025.2 0 16.479979)
(-186051.3 0 16.484224)
(-186077.4 0 16.488471)
(-186103.4 0 16.49272)
(-186129.5 0 16.496971)
(-186155.7 0 16.501225)
(-186181.8 0 16.50548)
(-186208 0 16.509738)
(-186234.2 0 16.513998)
(-186260.3 0 16.51826)
(-186286.5 0 16.522525)