/*--------------------------------*- C++ -*----------------------------------*\
  =========                 |
  \\      /  F ield         | OpenFOAM: The Open Source CFD Toolbox
   \\    /   O peration     | Website:  https://openfoam.org
    \\  /    A nd           | Version:  6
     \\/     M anipulation  |
\*---------------------------------------------------------------------------*/
FoamFile
{
    version     2.0;
    format      ascii;
    class       volVectorField;
    location    "10000";
    object      U;
}
// * * * * * * * * * * * * * * * * * * * * * * * * * * * * * * * * * * * * * //

dimensions      [0 1 -1 0 0 0 0];

internalField   nonuniform List<vector> 
4000
(
(1.3695202 0 0.010751642)
(1.197574 0 0.0079517456)
(1.0542394 0 0.0049614956)
(0.99843612 0 0.0021898624)
(0.96717032 0 0.0010140368)
(0.95764762 0 0.00038848918)
(0.95178371 0 0.00017410038)
(0.95059178 0 6.5109372e-05)
(0.94923506 0 3.8781975e-05)
(0.94900347 0 2.0789863e-05)
(0.94842504 0 2.0031613e-05)
(0.94818681 0 1.6544299e-05)
(0.94777116 0 1.7535183e-05)
(0.94747835 0 1.6575285e-05)
(0.9471103 0 1.7103867e-05)
(0.94679025 0 1.6753969e-05)
(0.94643979 0 1.697028e-05)
(0.94610854 0 1.6827048e-05)
(0.94576514 0 1.6908981e-05)
(0.94542949 0 1.6846864e-05)
(0.94508901 0 1.6875118e-05)
(0.94475168 0 1.6845809e-05)
(0.94441245 0 1.6852781e-05)
(0.94407451 0 1.6836728e-05)
(0.94373585 0 1.6835229e-05)
(0.94339775 0 1.682451e-05)
(0.94305939 0 1.6819628e-05)
(0.94272128 0 1.6811053e-05)
(0.94238311 0 1.6804818e-05)
(0.94204508 0 1.6797104e-05)
(0.94170705 0 1.679033e-05)
(0.94136912 0 1.6782963e-05)
(0.94103122 0 1.6775974e-05)
(0.9406934 0 1.6768748e-05)
(0.94035562 0 1.6761675e-05)
(0.94001791 0 1.6754508e-05)
(0.93968026 0 1.6747404e-05)
(0.93934266 0 1.6740262e-05)
(0.93900512 0 1.6733147e-05)
(0.93866765 0 1.6726017e-05)
(0.93833023 0 1.6718899e-05)
(0.93799286 0 1.6711777e-05)
(0.93765556 0 1.670466e-05)
(0.93731832 0 1.6697542e-05)
(0.93698113 0 1.6690428e-05)
(0.936644 0 1.6683314e-05)
(0.93630693 0 1.6676203e-05)
(0.93596992 0 1.6669092e-05)
(0.93563297 0 1.6661984e-05)
(0.93529607 0 1.6654877e-05)
(0.93495924 0 1.6647772e-05)
(0.93462246 0 1.6640668e-05)
(0.93428574 0 1.6633566e-05)
(0.93394908 0 1.6626466e-05)
(0.93361248 0 1.6619367e-05)
(0.93327594 0 1.661227e-05)
(0.93293945 0 1.6605175e-05)
(0.93260302 0 1.6598081e-05)
(0.93226666 0 1.6590989e-05)
(0.93193035 0 1.6583899e-05)
(0.9315941 0 1.657681e-05)
(0.9312579 0 1.6569723e-05)
(0.93092177 0 1.6562638e-05)
(0.93058569 0 1.6555554e-05)
(0.93024967 0 1.6548472e-05)
(0.92991371 0 1.6541391e-05)
(0.92957781 0 1.6534312e-05)
(0.92924197 0 1.6527235e-05)
(0.92890619 0 1.6520159e-05)
(0.92857046 0 1.6513085e-05)
(0.92823479 0 1.6506013e-05)
(0.92789919 0 1.6498943e-05)
(0.92756363 0 1.6491873e-05)
(0.92722814 0 1.6484806e-05)
(0.92689271 0 1.647774e-05)
(0.92655733 0 1.6470676e-05)
(0.92622202 0 1.6463614e-05)
(0.92588676 0 1.6456553e-05)
(0.92555156 0 1.6449494e-05)
(0.92521641 0 1.6442436e-05)
(0.92488133 0 1.6435381e-05)
(0.92454631 0 1.6428326e-05)
(0.92421134 0 1.6421274e-05)
(0.92387643 0 1.6414223e-05)
(0.92354158 0 1.6407174e-05)
(0.92320679 0 1.6400126e-05)
(0.92287205 0 1.639308e-05)
(0.92253738 0 1.6386035e-05)
(0.92220276 0 1.6378993e-05)
(0.9218682 0 1.6371952e-05)
(0.9215337 0 1.6364912e-05)
(0.92119926 0 1.6357874e-05)
(0.92086487 0 1.6350838e-05)
(0.92053055 0 1.6343804e-05)
(0.92019628 0 1.6336771e-05)
(0.91986207 0 1.632974e-05)
(0.91952792 0 1.632271e-05)
(0.91919383 0 1.6315682e-05)
(0.91885979 0 1.6308656e-05)
(0.91852582 0 1.6301631e-05)
(0.9181919 0 1.6294608e-05)
(0.91785804 0 1.6287587e-05)
(0.91752424 0 1.6280567e-05)
(0.9171905 0 1.6273549e-05)
(0.91685681 0 1.6266532e-05)
(0.91652319 0 1.6259517e-05)
(0.91618962 0 1.6252504e-05)
(0.91585611 0 1.6245493e-05)
(0.91552266 0 1.6238483e-05)
(0.91518926 0 1.6231474e-05)
(0.91485593 0 1.6224468e-05)
(0.91452265 0 1.6217463e-05)
(0.91418943 0 1.6210459e-05)
(0.91385627 0 1.6203458e-05)
(0.91352317 0 1.6196457e-05)
(0.91319013 0 1.6189459e-05)
(0.91285714 0 1.6182462e-05)
(0.91252421 0 1.6175467e-05)
(0.91219134 0 1.6168473e-05)
(0.91185853 0 1.6161482e-05)
(0.91152578 0 1.6154491e-05)
(0.91119308 0 1.6147503e-05)
(0.91086045 0 1.6140516e-05)
(0.91052787 0 1.613353e-05)
(0.91019535 0 1.6126547e-05)
(0.90986288 0 1.6119564e-05)
(0.90953048 0 1.6112584e-05)
(0.90919813 0 1.6105605e-05)
(0.90886585 0 1.6098628e-05)
(0.90853362 0 1.6091652e-05)
(0.90820145 0 1.6084679e-05)
(0.90786933 0 1.6077706e-05)
(0.90753728 0 1.6070736e-05)
(0.90720528 0 1.6063767e-05)
(0.90687334 0 1.6056799e-05)
(0.90654146 0 1.6049834e-05)
(0.90620964 0 1.6042869e-05)
(0.90587787 0 1.6035907e-05)
(0.90554617 0 1.6028946e-05)
(0.90521452 0 1.6021987e-05)
(0.90488293 0 1.6015029e-05)
(0.9045514 0 1.6008074e-05)
(0.90421992 0 1.6001119e-05)
(0.90388851 0 1.5994167e-05)
(0.90355715 0 1.5987216e-05)
(0.90322585 0 1.5980266e-05)
(0.90289461 0 1.5973319e-05)
(0.90256343 0 1.5966372e-05)
(0.9022323 0 1.5959428e-05)
(0.90190123 0 1.5952485e-05)
(0.90157022 0 1.5945544e-05)
(0.90123927 0 1.5938604e-05)
(0.90090838 0 1.5931666e-05)
(0.90057755 0 1.592473e-05)
(0.90024677 0 1.5917795e-05)
(0.89991605 0 1.5910862e-05)
(0.89958539 0 1.5903931e-05)
(0.89925479 0 1.5897001e-05)
(0.89892424 0 1.5890073e-05)
(0.89859376 0 1.5883146e-05)
(0.89826333 0 1.5876221e-05)
(0.89793296 0 1.5869298e-05)
(0.89760265 0 1.5862377e-05)
(0.89727239 0 1.5855456e-05)
(0.89694219 0 1.5848538e-05)
(0.89661206 0 1.5841621e-05)
(0.89628198 0 1.5834707e-05)
(0.89595195 0 1.5827792e-05)
(0.89562199 0 1.5820883e-05)
(0.89529208 0 1.5813969e-05)
(0.89496224 0 1.5807066e-05)
(0.89463244 0 1.5800151e-05)
(0.89430271 0 1.5793258e-05)
(0.89397304 0 1.5786334e-05)
(0.89364342 0 1.5779463e-05)
(0.89331386 0 1.5772514e-05)
(0.89298437 0 1.5765692e-05)
(0.89265492 0 1.5758675e-05)
(0.89232554 0 1.5751968e-05)
(0.8919962 0 1.5744779e-05)
(0.89166696 0 1.573835e-05)
(0.89133771 0 1.5730732e-05)
(0.89100862 0 1.5724983e-05)
(0.89067942 0 1.5716307e-05)
(0.89035055 0 1.5712225e-05)
(0.89002132 0 1.5700943e-05)
(0.88969279 0 1.5700958e-05)
(0.88936332 0 1.5683276e-05)
(0.88903547 0 1.5693391e-05)
(0.88870522 0 1.566007e-05)
(0.88837887 0 1.5695319e-05)
(0.88804654 0 1.5624338e-05)
(0.88772369 0 1.5723724e-05)
(0.88738593 0 1.5564867e-05)
(0.88707126 0 1.5836694e-05)
(0.88671926 0 1.5476894e-05)
(0.88642372 0 1.6244359e-05)
(0.88603269 0 1.5280498e-05)
(0.88578806 0 1.744581e-05)
(0.8852884 0 1.2260788e-05)
(1.3620029 0 0.032184407)
(1.1909651 0 0.023846973)
(1.0487995 0 0.014826917)
(0.99347126 0 0.0065607806)
(0.96246416 0 0.0030295563)
(0.9530257 0 0.001165558)
(0.94720196 0 0.0005195788)
(0.94602107 0 0.00019611063)
(0.94467123 0 0.00011559784)
(0.94444161 0 6.2799186e-05)
(0.94386568 0 5.9849785e-05)
(0.94362885 0 4.9832552e-05)
(0.94321508 0 5.2528315e-05)
(0.94292381 0 4.9824129e-05)
(0.94255751 0 5.12986e-05)
(0.94223908 0 5.0319021e-05)
(0.94189032 0 5.0923443e-05)
(0.94156072 0 5.052182e-05)
(0.94121901 0 5.0749817e-05)
(0.94088502 0 5.0574705e-05)
(0.94054622 0 5.065234e-05)
(0.94021055 0 5.0568909e-05)
(0.93987299 0 5.0586969e-05)
(0.93953673 0 5.0540607e-05)
(0.93919974 0 5.0534962e-05)
(0.9388633 0 5.0503524e-05)
(0.93852661 0 5.0488414e-05)
(0.93819018 0 5.0462972e-05)
(0.93785368 0 5.0444078e-05)
(0.93751731 0 5.0421046e-05)
(0.93718096 0 5.0400642e-05)
(0.93684469 0 5.0378582e-05)
(0.93650846 0 5.0357579e-05)
(0.9361723 0 5.0335915e-05)
(0.9358362 0 5.0314678e-05)
(0.93550015 0 5.0293178e-05)
(0.93516416 0 5.0271853e-05)
(0.93482824 0 5.0250425e-05)
(0.93449237 0 5.0229071e-05)
(0.93415655 0 5.0207678e-05)
(0.9338208 0 5.0186317e-05)
(0.9334851 0 5.0164944e-05)
(0.93314946 0 5.0143587e-05)
(0.93281388 0 5.0122227e-05)
(0.93247836 0 5.0100878e-05)
(0.9321429 0 5.007953e-05)
(0.93180749 0 5.0058189e-05)
(0.93147215 0 5.0036852e-05)
(0.93113686 0 5.001552e-05)
(0.93080163 0 4.9994194e-05)
(0.93046645 0 4.9972872e-05)
(0.93013134 0 4.9951555e-05)
(0.92979628 0 4.9930243e-05)
(0.92946128 0 4.9908936e-05)
(0.92912634 0 4.9887634e-05)
(0.92879146 0 4.9866336e-05)
(0.92845664 0 4.9845044e-05)
(0.92812187 0 4.9823757e-05)
(0.92778716 0 4.9802475e-05)
(0.92745251 0 4.9781197e-05)
(0.92711792 0 4.9759925e-05)
(0.92678339 0 4.9738657e-05)
(0.92644891 0 4.9717394e-05)
(0.9261145 0 4.9696137e-05)
(0.92578014 0 4.9674884e-05)
(0.92544584 0 4.9653636e-05)
(0.9251116 0 4.9632393e-05)
(0.92477741 0 4.9611155e-05)
(0.92444328 0 4.9589922e-05)
(0.92410922 0 4.9568694e-05)
(0.92377521 0 4.9547471e-05)
(0.92344125 0 4.9526253e-05)
(0.92310736 0 4.9505039e-05)
(0.92277352 0 4.9483831e-05)
(0.92243975 0 4.9462628e-05)
(0.92210603 0 4.9441429e-05)
(0.92177236 0 4.9420235e-05)
(0.92143876 0 4.9399047e-05)
(0.92110521 0 4.9377863e-05)
(0.92077173 0 4.9356684e-05)
(0.9204383 0 4.933551e-05)
(0.92010493 0 4.9314341e-05)
(0.91977161 0 4.9293177e-05)
(0.91943836 0 4.9272018e-05)
(0.91910516 0 4.9250864e-05)
(0.91877202 0 4.9229715e-05)
(0.91843894 0 4.920857e-05)
(0.91810591 0 4.9187431e-05)
(0.91777295 0 4.9166297e-05)
(0.91744004 0 4.9145167e-05)
(0.91710719 0 4.9124042e-05)
(0.9167744 0 4.9102923e-05)
(0.91644167 0 4.9081808e-05)
(0.91610899 0 4.9060698e-05)
(0.91577638 0 4.9039593e-05)
(0.91544382 0 4.9018493e-05)
(0.91511132 0 4.8997398e-05)
(0.91477887 0 4.8976308e-05)
(0.91444649 0 4.8955222e-05)
(0.91411416 0 4.8934142e-05)
(0.91378189 0 4.8913067e-05)
(0.91344968 0 4.8891996e-05)
(0.91311753 0 4.8870931e-05)
(0.91278543 0 4.884987e-05)
(0.91245339 0 4.8828814e-05)
(0.91212141 0 4.8807763e-05)
(0.91178949 0 4.8786717e-05)
(0.91145763 0 4.8765676e-05)
(0.91112582 0 4.874464e-05)
(0.91079407 0 4.8723609e-05)
(0.91046238 0 4.8702583e-05)
(0.91013075 0 4.8681561e-05)
(0.90979918 0 4.8660545e-05)
(0.90946766 0 4.8639534e-05)
(0.9091362 0 4.8618527e-05)
(0.9088048 0 4.8597525e-05)
(0.90847346 0 4.8576528e-05)
(0.90814218 0 4.8555537e-05)
(0.90781095 0 4.853455e-05)
(0.90747978 0 4.8513568e-05)
(0.90714867 0 4.8492591e-05)
(0.90681762 0 4.8471618e-05)
(0.90648663 0 4.8450651e-05)
(0.90615569 0 4.8429689e-05)
(0.90582481 0 4.8408731e-05)
(0.90549399 0 4.8387778e-05)
(0.90516322 0 4.8366831e-05)
(0.90483252 0 4.8345888e-05)
(0.90450187 0 4.832495e-05)
(0.90417128 0 4.8304017e-05)
(0.90384075 0 4.8283089e-05)
(0.90351028 0 4.8262166e-05)
(0.90317986 0 4.8241248e-05)
(0.9028495 0 4.8220335e-05)
(0.9025192 0 4.8199426e-05)
(0.90218896 0 4.8178523e-05)
(0.90185878 0 4.8157624e-05)
(0.90152865 0 4.813673e-05)
(0.90119858 0 4.8115841e-05)
(0.90086857 0 4.8094958e-05)
(0.90053862 0 4.8074079e-05)
(0.90020872 0 4.8053205e-05)
(0.89987888 0 4.8032335e-05)
(0.8995491 0 4.8011471e-05)
(0.89921938 0 4.7990612e-05)
(0.89888972 0 4.7969757e-05)
(0.89856011 0 4.7948908e-05)
(0.89823056 0 4.7928063e-05)
(0.89790107 0 4.7907223e-05)
(0.89757164 0 4.7886388e-05)
(0.89724226 0 4.7865558e-05)
(0.89691294 0 4.7844733e-05)
(0.89658369 0 4.7823913e-05)
(0.89625448 0 4.7803098e-05)
(0.89592534 0 4.7782288e-05)
(0.89559625 0 4.7761482e-05)
(0.89526722 0 4.7740682e-05)
(0.89493825 0 4.7719886e-05)
(0.89460934 0 4.7699095e-05)
(0.89428049 0 4.7678309e-05)
(0.89395169 0 4.7657528e-05)
(0.89362295 0 4.7636751e-05)
(0.89329427 0 4.761598e-05)
(0.89296564 0 4.7595213e-05)
(0.89263708 0 4.7574453e-05)
(0.89230857 0 4.7553695e-05)
(0.89198012 0 4.7532946e-05)
(0.89165172 0 4.7512196e-05)
(0.89132339 0 4.749146e-05)
(0.89099511 0 4.7470714e-05)
(0.89066689 0 4.7449996e-05)
(0.89033873 0 4.7429246e-05)
(0.89001062 0 4.7408559e-05)
(0.88968257 0 4.7387785e-05)
(0.88935459 0 4.736716e-05)
(0.88902665 0 4.7346315e-05)
(0.88869878 0 4.7325828e-05)
(0.88837096 0 4.7304793e-05)
(0.88804321 0 4.728463e-05)
(0.88771549 0 4.7263113e-05)
(0.88738788 0 4.7243732e-05)
(0.88706025 0 4.7221011e-05)
(0.88673279 0 4.7203539e-05)
(0.88640522 0 4.7177846e-05)
(0.88607796 0 4.7165059e-05)
(0.88575036 0 4.7132046e-05)
(0.88542345 0 4.713077e-05)
(0.8850956 0 4.7079777e-05)
(0.88476937 0 4.7106889e-05)
(0.88444075 0 4.7011976e-05)
(0.88411603 0 4.7109785e-05)
(0.88378532 0 4.6909255e-05)
(0.88346408 0 4.7187895e-05)
(0.88312796 0 4.6741813e-05)
(0.88281489 0 4.750904e-05)
(0.88246458 0 4.6504853e-05)
(0.88217058 0 4.8685627e-05)
(0.88178142 0 4.5985757e-05)
(0.88153815 0 5.2151902e-05)
(0.88104107 0 3.7113067e-05)
(1.3469984 0 0.053495541)
(1.1777705 0 0.039635694)
(1.0379285 0 0.024542798)
(0.98354926 0 0.010885968)
(0.95305345 0 0.0050131769)
(0.94378301 0 0.0019370588)
(0.93803851 0 0.00085936487)
(0.93687983 0 0.00032747501)
(0.93554352 0 0.0001912482)
(0.93531795 0 0.00010536141)
(0.93474692 0 9.9383811e-05)
(0.93451294 0 8.3436144e-05)
(0.9341029 0 8.74757e-05)
(0.93381472 0 8.3258451e-05)
(0.93345191 0 8.5532225e-05)
(0.93313672 0 8.4014999e-05)
(0.93279137 0 8.4948852e-05)
(0.93246507 0 8.4325705e-05)
(0.93212673 0 8.4676307e-05)
(0.93179607 0 8.4402967e-05)
(0.93146062 0 8.452059e-05)
(0.93112829 0 8.4388941e-05)
(0.93079408 0 8.4414319e-05)
(0.93046116 0 8.434e-05)
(0.93012751 0 8.4328689e-05)
(0.92979441 0 8.427746e-05)
(0.92946106 0 8.4251502e-05)
(0.92912797 0 8.4209553e-05)
(0.9287948 0 8.417774e-05)
(0.92846178 0 8.4139522e-05)
(0.92812876 0 8.4105373e-05)
(0.92779583 0 8.4068661e-05)
(0.92746294 0 8.4033586e-05)
(0.92713012 0 8.3997487e-05)
(0.92679734 0 8.396205e-05)
(0.92646463 0 8.3926208e-05)
(0.92613198 0 8.3890636e-05)
(0.92579939 0 8.3854906e-05)
(0.92546685 0 8.381929e-05)
(0.92513437 0 8.3783615e-05)
(0.92480194 0 8.3747991e-05)
(0.92446958 0 8.3712348e-05)
(0.92413727 0 8.367673e-05)
(0.92380502 0 8.364111e-05)
(0.92347283 0 8.3605504e-05)
(0.92314069 0 8.3569903e-05)
(0.92280862 0 8.3534313e-05)
(0.9224766 0 8.3498729e-05)
(0.92214463 0 8.3463155e-05)
(0.92181273 0 8.3427588e-05)
(0.92148088 0 8.3392029e-05)
(0.92114909 0 8.3356479e-05)
(0.92081736 0 8.3320937e-05)
(0.92048569 0 8.3285403e-05)
(0.92015407 0 8.3249878e-05)
(0.91982251 0 8.321436e-05)
(0.91949101 0 8.3178851e-05)
(0.91915957 0 8.314335e-05)
(0.91882818 0 8.3107858e-05)
(0.91849685 0 8.3072373e-05)
(0.91816558 0 8.3036897e-05)
(0.91783436 0 8.3001429e-05)
(0.91750321 0 8.2965969e-05)
(0.91717211 0 8.2930518e-05)
(0.91684107 0 8.2895075e-05)
(0.91651008 0 8.2859639e-05)
(0.91617916 0 8.2824213e-05)
(0.91584829 0 8.2788794e-05)
(0.91551748 0 8.2753383e-05)
(0.91518673 0 8.2717981e-05)
(0.91485603 0 8.2682587e-05)
(0.91452539 0 8.2647201e-05)
(0.91419481 0 8.2611824e-05)
(0.91386429 0 8.2576454e-05)
(0.91353382 0 8.2541093e-05)
(0.91320341 0 8.250574e-05)
(0.91287306 0 8.2470396e-05)
(0.91254277 0 8.2435059e-05)
(0.91221253 0 8.2399731e-05)
(0.91188235 0 8.236441e-05)
(0.91155223 0 8.2329099e-05)
(0.91122217 0 8.2293795e-05)
(0.91089216 0 8.2258499e-05)
(0.91056221 0 8.2223212e-05)
(0.91023232 0 8.2187933e-05)
(0.90990249 0 8.2152662e-05)
(0.90957271 0 8.21174e-05)
(0.90924299 0 8.2082145e-05)
(0.90891333 0 8.2046899e-05)
(0.90858372 0 8.2011661e-05)
(0.90825418 0 8.1976431e-05)
(0.90792469 0 8.1941209e-05)
(0.90759526 0 8.1905996e-05)
(0.90726588 0 8.1870791e-05)
(0.90693656 0 8.1835594e-05)
(0.9066073 0 8.1800405e-05)
(0.9062781 0 8.1765224e-05)
(0.90594896 0 8.1730051e-05)
(0.90561987 0 8.1694887e-05)
(0.90529084 0 8.1659731e-05)
(0.90496187 0 8.1624583e-05)
(0.90463295 0 8.1589444e-05)
(0.90430409 0 8.1554312e-05)
(0.90397529 0 8.1519189e-05)
(0.90364655 0 8.1484074e-05)
(0.90331787 0 8.1448967e-05)
(0.90298924 0 8.1413868e-05)
(0.90266067 0 8.1378778e-05)
(0.90233215 0 8.1343695e-05)
(0.9020037 0 8.1308621e-05)
(0.9016753 0 8.1273555e-05)
(0.90134696 0 8.1238497e-05)
(0.90101867 0 8.1203448e-05)
(0.90069045 0 8.1168406e-05)
(0.90036228 0 8.1133373e-05)
(0.90003416 0 8.1098348e-05)
(0.89970611 0 8.1063331e-05)
(0.89937811 0 8.1028323e-05)
(0.89905017 0 8.0993322e-05)
(0.89872229 0 8.095833e-05)
(0.89839446 0 8.0923346e-05)
(0.89806669 0 8.088837e-05)
(0.89773898 0 8.0853402e-05)
(0.89741133 0 8.0818443e-05)
(0.89708373 0 8.0783491e-05)
(0.8967562 0 8.0748548e-05)
(0.89642871 0 8.0713613e-05)
(0.89610129 0 8.0678686e-05)
(0.89577392 0 8.0643767e-05)
(0.89544661 0 8.0608857e-05)
(0.89511936 0 8.0573955e-05)
(0.89479217 0 8.0539061e-05)
(0.89446503 0 8.0504175e-05)
(0.89413795 0 8.0469297e-05)
(0.89381092 0 8.0434427e-05)
(0.89348396 0 8.0399566e-05)
(0.89315705 0 8.0364712e-05)
(0.8928302 0 8.0329867e-05)
(0.8925034 0 8.029503e-05)
(0.89217667 0 8.0260201e-05)
(0.89184999 0 8.0225381e-05)
(0.89152336 0 8.0190569e-05)
(0.8911968 0 8.0155764e-05)
(0.89087029 0 8.0120968e-05)
(0.89054384 0 8.0086181e-05)
(0.89021745 0 8.0051401e-05)
(0.88989111 0 8.0016629e-05)
(0.88956483 0 7.9981866e-05)
(0.88923861 0 7.994711e-05)
(0.88891244 0 7.9912363e-05)
(0.88858634 0 7.9877624e-05)
(0.88826029 0 7.9842893e-05)
(0.88793429 0 7.980817e-05)
(0.88760836 0 7.9773456e-05)
(0.88728248 0 7.973875e-05)
(0.88695666 0 7.9704052e-05)
(0.88663089 0 7.9669362e-05)
(0.88630519 0 7.9634681e-05)
(0.88597954 0 7.9600007e-05)
(0.88565394 0 7.9565341e-05)
(0.88532841 0 7.9530683e-05)
(0.88500293 0 7.9496033e-05)
(0.88467751 0 7.9461393e-05)
(0.88435214 0 7.9426759e-05)
(0.88402684 0 7.9392136e-05)
(0.88370159 0 7.9357517e-05)
(0.8833764 0 7.9322913e-05)
(0.88305126 0 7.9288308e-05)
(0.88272618 0 7.9253725e-05)
(0.88240116 0 7.9219127e-05)
(0.8820762 0 7.9184573e-05)
(0.88175129 0 7.9149969e-05)
(0.88142644 0 7.9115464e-05)
(0.88110165 0 7.9080825e-05)
(0.88077691 0 7.9046418e-05)
(0.88045223 0 7.9011669e-05)
(0.88012762 0 7.8977477e-05)
(0.87980305 0 7.8942435e-05)
(0.87947855 0 7.8908748e-05)
(0.87915408 0 7.8872956e-05)
(0.87882972 0 7.8840486e-05)
(0.87850534 0 7.8802824e-05)
(0.87818112 0 7.8773324e-05)
(0.8778568 0 7.8731043e-05)
(0.8775328 0 7.8708825e-05)
(0.87720844 0 7.8655166e-05)
(0.87688478 0 7.8650848e-05)
(0.87656018 0 7.8569237e-05)
(0.87623719 0 7.860907e-05)
(0.87591182 0 7.8459211e-05)
(0.87559033 0 7.8609099e-05)
(0.87526289 0 7.8295351e-05)
(0.87494486 0 7.8727444e-05)
(0.87461204 0 7.8034191e-05)
(0.87430214 0 7.9232685e-05)
(0.87395521 0 7.7682674e-05)
(0.8736643 0 8.1112785e-05)
(0.87327888 0 7.6930239e-05)
(0.87303835 0 8.6645209e-05)
(0.87254636 0 6.2474367e-05)
(1.3245385 0 0.074705276)
(1.1580296 0 0.055169348)
(1.0216498 0 0.034057302)
(0.96868157 0 0.015121008)
(0.93894224 0 0.0069552189)
(0.92992101 0 0.0026938157)
(0.92429379 0 0.0011933579)
(0.92316817 0 0.00045721422)
(0.92185195 0 0.00026634617)
(0.92163246 0 0.00014794797)
(0.92106877 0 0.00013899198)
(0.92083909 0 0.00011720365)
(0.92043464 0 0.00012256216)
(0.9201511 0 0.00011685346)
(0.91979352 0 0.0001199128)
(0.9194832 0 0.00011786569)
(0.91914294 0 0.00011912338)
(0.91882161 0 0.00011828185)
(0.91848832 0 0.00011875286)
(0.91816265 0 0.00011838256)
(0.91783223 0 0.00011853929)
(0.91750491 0 0.00011835992)
(0.91717572 0 0.00011839225)
(0.9168478 0 0.00011829015)
(0.91651916 0 0.00011827301)
(0.91619108 0 0.00011820204)
(0.91586274 0 0.00011816515)
(0.91553465 0 0.0001181067)
(0.91520649 0 0.00011806191)
(0.91487847 0 0.00011800849)
(0.91455046 0 0.00011796055)
(0.91422254 0 0.00011790916)
(0.91389465 0 0.00011785998)
(0.91356683 0 0.00011780942)
(0.91323906 0 0.00011775975)
(0.91291136 0 0.00011770953)
(0.9125837 0 0.00011765968)
(0.91225611 0 0.00011760962)
(0.91192857 0 0.00011755971)
(0.91160109 0 0.00011750972)
(0.91127366 0 0.0001174598)
(0.91094629 0 0.00011740986)
(0.91061898 0 0.00011735995)
(0.91029173 0 0.00011731003)
(0.90996453 0 0.00011726014)
(0.90963738 0 0.00011721026)
(0.9093103 0 0.00011716038)
(0.90898327 0 0.00011711052)
(0.9086563 0 0.00011706067)
(0.90832938 0 0.00011701083)
(0.90800253 0 0.00011696101)
(0.90767572 0 0.00011691119)
(0.90734898 0 0.00011686139)
(0.90702229 0 0.0001168116)
(0.90669566 0 0.00011676181)
(0.90636909 0 0.00011671205)
(0.90604257 0 0.00011666229)
(0.90571611 0 0.00011661254)
(0.9053897 0 0.00011656281)
(0.90506335 0 0.00011651308)
(0.90473706 0 0.00011646337)
(0.90441083 0 0.00011641367)
(0.90408465 0 0.00011636398)
(0.90375853 0 0.00011631431)
(0.90343246 0 0.00011626464)
(0.90310645 0 0.00011621499)
(0.9027805 0 0.00011616534)
(0.90245461 0 0.00011611571)
(0.90212877 0 0.00011606609)
(0.90180299 0 0.00011601648)
(0.90147726 0 0.00011596689)
(0.9011516 0 0.0001159173)
(0.90082598 0 0.00011586773)
(0.90050043 0 0.00011581817)
(0.90017493 0 0.00011576862)
(0.89984949 0 0.00011571908)
(0.8995241 0 0.00011566955)
(0.89919878 0 0.00011562003)
(0.8988735 0 0.00011557053)
(0.89854829 0 0.00011552103)
(0.89822313 0 0.00011547155)
(0.89789803 0 0.00011542208)
(0.89757298 0 0.00011537262)
(0.89724799 0 0.00011532318)
(0.89692306 0 0.00011527374)
(0.89659818 0 0.00011522432)
(0.89627337 0 0.0001151749)
(0.8959486 0 0.0001151255)
(0.8956239 0 0.00011507611)
(0.89529925 0 0.00011502673)
(0.89497465 0 0.00011497737)
(0.89465012 0 0.00011492801)
(0.89432564 0 0.00011487867)
(0.89400121 0 0.00011482933)
(0.89367685 0 0.00011478001)
(0.89335254 0 0.0001147307)
(0.89302828 0 0.0001146814)
(0.89270409 0 0.00011463212)
(0.89237995 0 0.00011458284)
(0.89205586 0 0.00011453358)
(0.89173183 0 0.00011448433)
(0.89140786 0 0.00011443509)
(0.89108395 0 0.00011438586)
(0.89076009 0 0.00011433664)
(0.89043629 0 0.00011428743)
(0.89011254 0 0.00011423824)
(0.88978886 0 0.00011418905)
(0.88946522 0 0.00011413988)
(0.88914165 0 0.00011409072)
(0.88881813 0 0.00011404157)
(0.88849467 0 0.00011399243)
(0.88817126 0 0.00011394331)
(0.88784791 0 0.00011389419)
(0.88752462 0 0.00011384509)
(0.88720138 0 0.000113796)
(0.8868782 0 0.00011374692)
(0.88655508 0 0.00011369785)
(0.88623201 0 0.00011364879)
(0.885909 0 0.00011359975)
(0.88558605 0 0.00011355071)
(0.88526315 0 0.00011350169)
(0.88494031 0 0.00011345268)
(0.88461752 0 0.00011340368)
(0.88429479 0 0.00011335469)
(0.88397212 0 0.00011330571)
(0.88364951 0 0.00011325674)
(0.88332695 0 0.00011320779)
(0.88300444 0 0.00011315885)
(0.882682 0 0.00011310991)
(0.88235961 0 0.00011306099)
(0.88203728 0 0.00011301209)
(0.881715 0 0.00011296319)
(0.88139278 0 0.0001129143)
(0.88107061 0 0.00011286543)
(0.88074851 0 0.00011281656)
(0.88042645 0 0.00011276771)
(0.88010446 0 0.00011271887)
(0.87978252 0 0.00011267004)
(0.87946064 0 0.00011262123)
(0.87913881 0 0.00011257242)
(0.87881704 0 0.00011252363)
(0.87849533 0 0.00011247484)
(0.87817367 0 0.00011242607)
(0.87785207 0 0.00011237731)
(0.87753053 0 0.00011232856)
(0.87720904 0 0.00011227983)
(0.87688761 0 0.0001122311)
(0.87656624 0 0.00011218239)
(0.87624492 0 0.00011213368)
(0.87592365 0 0.00011208499)
(0.87560245 0 0.00011203631)
(0.8752813 0 0.00011198764)
(0.87496021 0 0.00011193899)
(0.87463917 0 0.00011189034)
(0.87431819 0 0.00011184171)
(0.87399726 0 0.00011179308)
(0.8736764 0 0.00011174447)
(0.87335559 0 0.00011169587)
(0.87303483 0 0.00011164728)
(0.87271413 0 0.0001115987)
(0.87239349 0 0.00011155014)
(0.8720729 0 0.00011150158)
(0.87175237 0 0.00011145304)
(0.8714319 0 0.00011140451)
(0.87111148 0 0.00011135599)
(0.87079112 0 0.00011130748)
(0.87047082 0 0.00011125899)
(0.87015057 0 0.00011121049)
(0.86983037 0 0.00011116203)
(0.86951024 0 0.00011111355)
(0.86919016 0 0.00011106513)
(0.86887014 0 0.00011101664)
(0.86855017 0 0.00011096828)
(0.86823026 0 0.00011091975)
(0.8679104 0 0.00011087152)
(0.8675906 0 0.00011082284)
(0.86727086 0 0.00011077491)
(0.86695117 0 0.00011072583)
(0.86663155 0 0.00011067858)
(0.86631196 0 0.00011062849)
(0.86599247 0 0.00011058289)
(0.86567297 0 0.00011053027)
(0.86535363 0 0.00011048868)
(0.86503418 0 0.00011042982)
(0.86471504 0 0.00011039808)
(0.86439557 0 0.00011032384)
(0.86407677 0 0.00011031629)
(0.86375704 0 0.00011020428)
(0.86343892 0 0.0001102564)
(0.86311843 0 0.00011005218)
(0.86280178 0 0.00011025312)
(0.86247923 0 0.00010982762)
(0.86216603 0 0.00011041055)
(0.86183815 0 0.00010947356)
(0.86153301 0 0.00011109594)
(0.86119116 0 0.00010900796)
(0.86090488 0 0.00011366262)
(0.86052505 0 0.00010802322)
(0.86028866 0 0.00012119864)
(0.85980428 0 8.8071342e-05)
(1.2946676 0 0.095760033)
(1.1318028 0 0.070335851)
(0.99999953 0 0.0432941)
(0.94888495 0 0.019229907)
(0.92013672 0 0.008840748)
(0.91144176 0 0.0034297796)
(0.9059685 0 0.0015196843)
(0.90488622 0 0.0005845337)
(0.90359658 0 0.00034080746)
(0.90338515 0 0.00019049841)
(0.90283123 0 0.00017875434)
(0.90260728 0 0.00015117192)
(0.90221028 0 0.00015786387)
(0.90193293 0 0.00015066269)
(0.90158232 0 0.00015450812)
(0.90127849 0 0.00015192951)
(0.90094505 0 0.00015351112)
(0.90063032 0 0.00015245063)
(0.90030377 0 0.00015304212)
(0.89998476 0 0.00015257465)
(0.89966104 0 0.00015277051)
(0.89934039 0 0.00015254331)
(0.89901789 0 0.00015258257)
(0.89869665 0 0.00015245264)
(0.8983747 0 0.00015242963)
(0.8980533 0 0.00015233887)
(0.89773164 0 0.00015229101)
(0.89741023 0 0.000152216)
(0.89708875 0 0.0001521582)
(0.89676741 0 0.00015208953)
(0.89644607 0 0.00015202777)
(0.89612482 0 0.00015196165)
(0.8958036 0 0.00015189832)
(0.89548246 0 0.00015183325)
(0.89516136 0 0.0001517693)
(0.89484032 0 0.00015170467)
(0.89451933 0 0.00015164049)
(0.89419841 0 0.00015157605)
(0.89387753 0 0.0001515118)
(0.89355671 0 0.00015144746)
(0.89323595 0 0.0001513832)
(0.89291525 0 0.0001513189)
(0.89259459 0 0.00015125466)
(0.892274 0 0.00015119041)
(0.89195346 0 0.00015112618)
(0.89163297 0 0.00015106197)
(0.89131255 0 0.00015099777)
(0.89099217 0 0.00015093358)
(0.89067185 0 0.00015086941)
(0.89035159 0 0.00015080526)
(0.89003139 0 0.00015074112)
(0.88971123 0 0.00015067699)
(0.88939114 0 0.00015061288)
(0.8890711 0 0.00015054879)
(0.88875111 0 0.00015048471)
(0.88843119 0 0.00015042064)
(0.88811131 0 0.00015035659)
(0.88779149 0 0.00015029255)
(0.88747173 0 0.00015022853)
(0.88715202 0 0.00015016453)
(0.88683237 0 0.00015010053)
(0.88651278 0 0.00015003656)
(0.88619324 0 0.00014997259)
(0.88587375 0 0.00014990865)
(0.88555432 0 0.00014984471)
(0.88523495 0 0.0001497808)
(0.88491563 0 0.00014971689)
(0.88459637 0 0.000149653)
(0.88427716 0 0.00014958913)
(0.88395801 0 0.00014952527)
(0.88363891 0 0.00014946143)
(0.88331987 0 0.0001493976)
(0.88300088 0 0.00014933378)
(0.88268195 0 0.00014926998)
(0.88236308 0 0.0001492062)
(0.88204426 0 0.00014914243)
(0.8817255 0 0.00014907867)
(0.88140679 0 0.00014901493)
(0.88108813 0 0.0001489512)
(0.88076954 0 0.00014888749)
(0.880451 0 0.0001488238)
(0.88013251 0 0.00014876011)
(0.87981408 0 0.00014869645)
(0.8794957 0 0.00014863279)
(0.87917738 0 0.00014856916)
(0.87885912 0 0.00014850553)
(0.87854091 0 0.00014844193)
(0.87822275 0 0.00014837833)
(0.87790465 0 0.00014831475)
(0.87758661 0 0.00014825119)
(0.87726862 0 0.00014818764)
(0.87695069 0 0.00014812411)
(0.87663281 0 0.00014806059)
(0.87631499 0 0.00014799708)
(0.87599723 0 0.00014793359)
(0.87567951 0 0.00014787012)
(0.87536186 0 0.00014780666)
(0.87504426 0 0.00014774321)
(0.87472671 0 0.00014767978)
(0.87440922 0 0.00014761636)
(0.87409179 0 0.00014755296)
(0.87377441 0 0.00014748957)
(0.87345709 0 0.0001474262)
(0.87313982 0 0.00014736284)
(0.87282261 0 0.0001472995)
(0.87250545 0 0.00014723617)
(0.87218835 0 0.00014717286)
(0.8718713 0 0.00014710956)
(0.87155431 0 0.00014704628)
(0.87123737 0 0.00014698301)
(0.87092049 0 0.00014691975)
(0.87060367 0 0.00014685651)
(0.8702869 0 0.00014679329)
(0.86997018 0 0.00014673008)
(0.86965352 0 0.00014666688)
(0.86933692 0 0.0001466037)
(0.86902037 0 0.00014654053)
(0.86870388 0 0.00014647738)
(0.86838744 0 0.00014641425)
(0.86807106 0 0.00014635112)
(0.86775473 0 0.00014628802)
(0.86743846 0 0.00014622492)
(0.86712224 0 0.00014616185)
(0.86680608 0 0.00014609878)
(0.86648997 0 0.00014603573)
(0.86617392 0 0.0001459727)
(0.86585793 0 0.00014590968)
(0.86554198 0 0.00014584668)
(0.8652261 0 0.00014578369)
(0.86491027 0 0.00014572071)
(0.86459449 0 0.00014565775)
(0.86427877 0 0.00014559481)
(0.86396311 0 0.00014553187)
(0.8636475 0 0.00014546896)
(0.86333195 0 0.00014540606)
(0.86301645 0 0.00014534317)
(0.86270101 0 0.0001452803)
(0.86238562 0 0.00014521744)
(0.86207029 0 0.0001451546)
(0.86175501 0 0.00014509177)
(0.86143979 0 0.00014502896)
(0.86112462 0 0.00014496616)
(0.86080951 0 0.00014490337)
(0.86049445 0 0.0001448406)
(0.86017945 0 0.00014477785)
(0.8598645 0 0.00014471511)
(0.85954961 0 0.00014465238)
(0.85923477 0 0.00014458967)
(0.85891999 0 0.00014452698)
(0.85860527 0 0.00014446429)
(0.8582906 0 0.00014440163)
(0.85797598 0 0.00014433898)
(0.85766142 0 0.00014427634)
(0.85734692 0 0.00014421372)
(0.85703247 0 0.00014415111)
(0.85671807 0 0.00014408852)
(0.85640373 0 0.00014402594)
(0.85608945 0 0.00014396337)
(0.85577522 0 0.00014390082)
(0.85546105 0 0.00014383829)
(0.85514693 0 0.00014377577)
(0.85483287 0 0.00014371326)
(0.85451886 0 0.00014365077)
(0.8542049 0 0.00014358829)
(0.85389101 0 0.00014352584)
(0.85357716 0 0.00014346339)
(0.85326337 0 0.00014340096)
(0.85294964 0 0.00014333853)
(0.85263596 0 0.00014327615)
(0.85232234 0 0.00014321373)
(0.85200877 0 0.0001431514)
(0.85169526 0 0.00014308898)
(0.85138181 0 0.00014302673)
(0.8510684 0 0.00014296425)
(0.85075506 0 0.00014290217)
(0.85044176 0 0.0001428395)
(0.85012853 0 0.00014277779)
(0.84981534 0 0.00014271462)
(0.84950223 0 0.00014265377)
(0.84918914 0 0.00014258933)
(0.84887615 0 0.00014253055)
(0.84856315 0 0.00014246293)
(0.8482503 0 0.00014240921)
(0.84793735 0 0.00014233373)
(0.84762471 0 0.00014229241)
(0.84731173 0 0.00014219755)
(0.84699942 0 0.00014218672)
(0.8466862 0 0.00014204426)
(0.84637455 0 0.00014210864)
(0.84606057 0 0.00014184999)
(0.84575039 0 0.00014210194)
(0.84543437 0 0.00014156452)
(0.84512759 0 0.0001422981)
(0.84480629 0 0.00014111676)
(0.8445075 0 0.00014316127)
(0.84417242 0 0.00014053291)
(0.84389232 0 0.00014639884)
(0.84351994 0 0.00013930496)
(0.84328904 0 0.0001558727)
(0.84281478 0 0.00011395027)
(1.2574497 0 0.11659711)
(1.0991723 0 0.085034529)
(0.97302552 0 0.052175693)
(0.92418158 0 0.023180215)
(0.89664493 0 0.010654572)
(0.88834798 0 0.004139823)
(0.8830635 0 0.0018361847)
(0.88203416 0 0.00070891124)
(0.88077749 0 0.00041440286)
(0.88057599 0 0.0002330497)
(0.88003431 0 0.00021868967)
(0.8798175 0 0.0001854157)
(0.87942984 0 0.0001934321)
(0.87916021 0 0.00018475458)
(0.87881833 0 0.00018937588)
(0.87852261 0 0.00018627066)
(0.87819767 0 0.00018817191)
(0.87789121 0 0.00018689449)
(0.87757308 0 0.00018760481)
(0.87726239 0 0.000187041)