/*--------------------------------*- C++ -*----------------------------------*\
  =========                 |
  \\      /  F ield         | OpenFOAM: The Open Source CFD Toolbox
   \\    /   O peration     | Website:  https://openfoam.org
    \\  /    A nd           | Version:  6
     \\/     M anipulation  |
\*---------------------------------------------------------------------------*/
FoamFile
{
    version     2.0;
    format      ascii;
    class       volVectorField;
    location    "10000";
    object      grad(p);
}
// * * * * * * * * * * * * * * * * * * * * * * * * * * * * * * * * * * * * * //

dimensions      [0 1 -2 0 0 0 0];

internalField   nonuniform List<vector> 
1000
(
(-168998.87 0 -10977.744)
(-249945.09 0 2081.5612)
(-202461.31 0 -1882.3529)
(-221392.59 0 771.34986)
(-210983.63 0 -425.95841)
(-216397.48 0 220.60667)
(-213610.48 0 -115.37497)
(-215129.27 0 65.244668)
(-214386.85 0 -30.128044)
(-214831.07 0 20.095453)
(-214651.46 0 -10.052777)
(-214800.02 0 5.0289163)
(-214776.49 0 0)
(-214843 0 5.0339794)
(-214862.49 0 0)
(-214907 0 5.0390527)
(-214938 0 5.0415931)
(-214976 0 5.0441362)
(-215010.5 0 5.0466818)
(-215047 0 5.04923)
(-215082.5 0 0)
(-215119 0 0)
(-215154.5 0 5.05689)
(-215190.5 0 0)
(-215227 0 0)
(-215263 0 0)
(-215299 0 0)
(-215335.5 0 0)
(-215371.5 0 5.07228)
(-215407.5 0 0)
(-215444.5 0 0)
(-215481 0 5.0800102)
(-215517 0 5.0825921)
(-215553.5 0 0)
(-215590 0 5.0877639)
(-215626.5 0 0)
(-215663.5 0 0)
(-215700 0 5.0955414)
(-215736.5 0 0)
(-215773.5 0 0)
(-215810 0 5.1033427)
(-215847 0 0)
(-215884 0 0)
(-215921 0 0)
(-215958 0 5.1137816)
(-215995 0 0)
(-216032 0 5.1190172)
(-216069 0 0)
(-216106.5 0 5.1242634)
(-216143.5 0 5.1268905)
(-216180.5 0 0)
(-216218 0 0)
(-216255.5 0 0)
(-216292.95 0 0)
(-216330.5 0 2.0560267)
(-216367.85 0 2.0570841)
(-216405.35 0 2.0581425)
(-216442.95 0 2.059202)
(-216480.6 0 2.0602627)
(-216518.3 0 2.0613244)
(-216556.05 0 2.0623872)
(-216593.8 0 2.0634511)
(-216631.65 0 2.0645161)
(-216669.55 0 2.0655822)
(-216707.45 0 2.5833118)
(-216745.4 0 2.0677178)
(-216783.4 0 2.0687872)
(-216821.5 0 2.0698577)
(-216859.65 0 2.0709293)
(-216897.8 0 2.0720021)
(-216936 0 2.0730759)
(-216974.25 0 2.0741509)
(-217012.55 0 2.075227)
(-217050.9 0 2.0763042)
(-217089.35 0 2.0773825)
(-217127.8 0 2.0784619)
(-217166.25 0 2.0795425)
(-217204.8 0 2.0806242)
(-217243.45 0 2.081707)
(-217282.1 0 2.0827909)
(-217320.75 0 2.083876)
(-217359.5 0 2.0849622)
(-217398.3 0 2.0860495)
(-217437.15 0 2.087138)
(-217476.1 0 2.0882276)
(-217514.95 0 2.6116479)
(-217554 0 2.0904102)
(-217592.95 0 2.0915033)
(-217632.25 0 2.0925974)
(-217670.95 0 2.0936928)
(-217710.95 0 2.0947892)
(-217748.7 0 2.6198585)
(-217790.8 0 1.5727392)
(-217824.8 0 2.6226069)
(-217874.26 0 1.0495933)
(-217894.6 0 3.5704909)
(-217970.33 0 -0.57788285)
(-217940.18 0 7.3061761)
(-218113.18 0 -9.3084407)
(-217833.62 0 20.994475)
(-167695.28 0 -27936.984)
(-249035.31 0 2131.5987)
(-202592.56 0 -3314.1427)
(-221246.98 0 1212.1212)
(-211038.68 0 -681.53345)
(-216366.45 0 360.99273)
(-213626 0 -180.58691)
(-215120.76 0 105.39523)
(-214391.36 0 -45.192066)
(-214829.07 0 35.167043)
(-214652.96 0 -10.052777)
(-214799.02 0 10.057833)
(-214776.49 0 0)
(-214843 0 5.0339794)
(-214862.49 0 0)
(-214906.5 0 5.0390527)
(-214938 0 5.0415931)
(-214976 0 10.088272)
(-215010.5 0 5.0466818)
(-215047.5 0 5.04923)
(-215083 0 5.0517808)
(-215118.5 0 5.0543341)
(-215154.5 0 10.11378)
(-215191 0 5.0594485)
(-215227 0 5.0620096)
(-215263 0 5.0645733)
(-215299 0 5.0671396)
(-215335 0 5.0697085)
(-215371.5 0 10.14456)
(-215408 0 5.0748541)
(-215444 0 5.0774308)
(-215480.5 0 5.0800102)
(-215517.5 0 5.0825921)
(-215553.5 0 5.0851767)
(-215590 0 5.0877639)
(-215627 0 5.0903538)
(-215663 0 5.0929463)
(-215700 0 5.0955414)
(-215737 0 5.0981392)
(-215773 0 5.1007396)
(-215810 0 5.1033427)
(-215847.5 0 5.1059484)
(-215884 0 5.1085568)
(-215920.5 0 5.1111679)
(-215958 0 5.1137816)
(-215995 0 5.1163981)
(-216032 0 10.238034)
(-216069 0 5.1216389)
(-216106 0 5.1242634)
(-216144 0 5.1268905)
(-216181 0 5.1295204)
(-216218 0 5.1321529)
(-216255.5 0 5.1347882)
(-216292.75 0 5.1374262)
(-216330.3 0 5.6540735)
(-216367.85 0 5.6569812)
(-216405.35 0 5.659892)
(-216442.95 0 5.6628057)
(-216480.6 0 5.6657224)
(-216518.3 0 5.6686421)
(-216556.05 0 5.6715648)
(-216593.8 0 5.6744906)
(-216631.65 0 5.6774194)
(-216669.5 0 5.6803511)
(-216707.45 0 6.1999483)
(-216745.45 0 5.6862238)
(-216783.4 0 5.6891647)
(-216821.5 0 5.6921087)
(-216859.65 0 5.6950556)
(-216897.8 0 5.6980057)
(-216936 0 5.7009588)
(-216974.25 0 5.703915)
(-217012.55 0 5.7068742)
(-217050.9 0 5.7098365)
(-217089.35 0 5.7128019)
(-217127.8 0 5.7157703)
(-217166.25 0 5.7187419)
(-217204.8 0 5.7217165)
(-217243.45 0 5.7246942)
(-217282.1 0 5.7276751)
(-217320.75 0 5.730659)
(-217359.5 0 5.7336461)
(-217398.3 0 5.7366362)
(-217437.15 0 5.7396295)
(-217476.05 0 5.7426259)
(-217514.95 0 6.2679551)
(-217554.05 0 5.7486282)
(-217592.95 0 5.751634)
(-217632.25 0 5.7546429)
(-217670.95 0 5.7576551)
(-217710.9 0 5.7606703)
(-217748.75 0 6.2876605)
(-217790.8 0 5.242464)
(-217824.85 0 6.8187779)
(-217874.17 0 4.7231698)
(-217894.76 0 8.1386191)
(-217969.97 0 1.4709745)
(-217941.01 0 14.191853)
(-218111.88 0 -13.620826)
(-217834.73 0 39.042357)
(-165998.33 0 -42360.59)
(-247482.69 0 -575.43157)
(-202553.78 0 -3148.9362)
(-221129.41 0 911.59529)
(-211068.72 0 -536.20646)
(-216347.43 0 285.78591)
(-213636.01 0 -135.44018)
(-215115.75 0 85.31995)
(-214393.86 0 -30.128044)
(-214827.57 0 30.14318)
(-214653.96 0 0)
(-214799.02 0 15.086749)
(-214776.99 0 5.0314465)
(-214843 0 10.067959)
(-214862.49 0 5.0365147)
(-214906.5 0 10.078105)
(-214937.5 0 5.0415931)
(-214976 0 10.088272)
(-215011 0 5.0466818)
(-215047 0 5.04923)
(-215082.5 0 10.103561)
(-215118.5 0 10.108668)
(-215154.5 0 10.11378)
(-215191 0 10.118897)
(-215227 0 10.124019)
(-215263 0 10.129147)
(-215299 0 10.134279)
(-215335 0 10.139417)
(-215371.5 0 10.14456)
(-215408 0 10.149708)
(-215444.5 0 10.154862)
(-215481 0 5.0800102)
(-215517 0 10.165184)
(-215553.5 0 10.170353)
(-215590 0 5.0877639)
(-215626.5 0 10.180708)
(-215663.5 0 10.185893)
(-215700 0 10.191083)
(-215736.5 0 10.196278)
(-215773.5 0 10.201479)
(-215810 0 5.1033427)
(-215847 0 10.211897)
(-215884 0 10.217114)
(-215921 0 10.222336)
(-215958 0 5.1137816)
(-215994.5 0 10.232796)
(-216032 0 10.238034)
(-216069.5 0 10.243278)
(-216106.5 0 5.1242634)
(-216143.5 0 5.1268905)
(-216180.5 0 10.259041)
(-216218 0 10.264306)
(-216255.5 0 10.269576)
(-216292.9 0 10.274852)
(-216330.45 0 9.2521203)
(-216367.85 0 9.2568784)
(-216405.35 0 9.2616414)
(-216442.95 0 8.7516087)
(-216480.6 0 9.2711821)
(-216518.3 0 8.7606287)
(-216556.05 0 9.2807425)
(-216593.8 0 9.2855301)
(-216631.65 0 9.2903226)
(-216669.5 0 9.2951201)
(-216707.45 0 8.7832601)
(-216745.45 0 9.3047299)
(-216783.4 0 9.3095423)
(-216821.5 0 8.7968952)
(-216859.65 0 9.319182)
(-216897.8 0 9.3240093)
(-216936 0 9.3288417)
(-216974.25 0 9.333679)
(-217012.55 0 9.3385214)
(-217050.9 0 9.3433688)
(-217089.35 0 9.3482212)
(-217127.8 0 9.3530787)
(-217166.25 0 9.3579413)
(-217204.8 0 9.3628088)
(-217243.45 0 8.8472548)
(-217282.1 0 9.3725592)
(-217320.75 0 9.377442)
(-217359.5 0 9.3823299)
(-217398.3 0 9.3872229)
(-217437.15 0 8.8703366)
(-217476.05 0 9.3970243)
(-217514.95 0 8.879603)
(-217554.05 0 8.8842435)
(-217592.95 0 9.4117647)
(-217632.25 0 9.4166885)
(-217670.95 0 9.4216174)
(-217710.9 0 8.9028541)
(-217748.75 0 9.4314907)
(-217790.74 0 9.4364351)
(-217824.85 0 9.9659061)
(-217874.14 0 8.3967463)
(-217894.91 0 11.131531)
(-217969.75 0 5.8313633)
(-217941.61 0 15.978975)
(-218110.82 0 -7.9936892)
(-217836.03 0 41.30492)
(-163526.97 0 -60000)
(-245114.39 0 -1225.9194)
(-202444.64 0 -3959.9499)
(-220985.77 0 1126.9722)
(-211101.29 0 -661.48835)
(-216326.39 0 350.96515)
(-213646.02 0 -165.538)
(-215110.24 0 105.39523)
(-214396.87 0 -40.170726)
(-214826.06 0 35.167043)
(-214654.46 0 0)
(-214798.51 0 20.115665)
(-214776.98 0 10.062893)
(-214843 0 15.101938)
(-214862.49 0 15.109544)
(-214906.5 0 15.117158)
(-214937.99 0 15.124779)
(-214976 0 10.088272)
(-215010.99 0 15.140045)
(-215046.99 0 15.14769)
(-215082.49 0 15.155342)
(-215118.49 0 15.163002)
(-215154.5 0 10.11378)
(-215191 0 10.118897)
(-215226.99 0 15.186029)
(-215262.99 0 15.19372)
(-215298.99 0 15.201419)
(-215335 0 10.139417)
(-215371.5 0 10.14456)
(-215408 0 10.149708)
(-215444.5 0 10.154862)
(-215480.49 0 15.24003)
(-215516.99 0 15.247776)
(-215553.99 0 15.25553)
(-215589.99 0 15.263292)
(-215626.5 0 10.180708)
(-215662.99 0 15.278839)
(-215699.99 0 15.286624)
(-215736.99 0 15.294418)
(-215773.49 0 15.302219)
(-215809.99 0 15.310028)
(-215846.99 0 10.211897)
(-215883.99 0 15.32567)
(-215920.99 0 10.222336)
(-215957.99 0 15.341345)
(-215994.5 0 10.232796)
(-216031.99 0 10.238034)
(-216069.5 0 10.243278)
(-216106.49 0 15.37279)
(-216143.49 0 15.380672)
(-216180.49 0 15.388561)
(-216217.99 0 10.264306)
(-216255.5 0 10.269576)
(-216292.84 0 10.274852)
(-216330.39 0 12.850167)
(-216367.84 0 12.856776)
(-216405.39 0 12.863391)
(-216442.94 0 12.870013)
(-216480.59 0 12.876642)
(-216518.29 0 12.883278)
(-216555.99 0 12.88992)
(-216593.79 0 12.89657)
(-216631.64 0 12.903226)
(-216669.54 0 12.909889)
(-216707.44 0 12.399897)
(-216745.39 0 12.923236)
(-216783.44 0 12.92992)
(-216821.49 0 12.419146)
(-216859.59 0 12.943308)
(-216897.79 0 12.950013)
(-216935.99 0 12.956725)
(-216974.24 0 12.963443)
(-217012.54 0 12.970169)
(-217050.89 0 12.976901)
(-217089.34 0 12.983641)
(-217127.79 0 12.990387)
(-217166.24 0 12.997141)
(-217204.84 0 13.003901)
(-217243.44 0 13.010669)
(-217282.04 0 13.017443)
(-217320.74 0 13.024225)
(-217359.49 0 13.031014)
(-217398.34 0 13.03781)
(-217437.14 0 13.044613)
(-217476.04 0 13.051423)
(-217514.99 0 13.05824)
(-217553.99 0 13.065064)
(-217592.89 0 13.071895)
(-217632.24 0 13.078734)
(-217670.99 0 13.609003)
(-217710.89 0 12.568735)
(-217748.69 0 13.099293)
(-217790.74 0 13.10616)
(-217824.95 0 13.637556)
(-217874.06 0 11.545526)
(-217895 0 15.332108)
(-217969.51 0 8.8783819)
(-217942.32 0 21.287779)
(-218109.48 0 -8.6247699)
(-217837.88 0 54.617206)
(-160135.73 0 -78619.655)
(-241878.8 0 -1000.7506)
(-202319.63 0 -4941.1765)
(-220799.57 0 1492.6121)
(-211146.4 0 -856.92809)
(-216297.83 0 461.26849)
(-213660.55 0 -215.70103)
(-215103.23 0 135.50816)
(-214400.87 0 -50.213407)
(-214823.56 0 50.238634)
(-214655.46 0 0)
(-214798.01 0 25.144581)
(-214777.48 0 10.062893)
(-214842.5 0 15.101938)
(-214862.49 0 15.109544)
(-214906.5 0 15.117158)
(-214937.99 0 15.124779)
(-214975.99 0 15.132409)
(-215010.49 0 15.140045)
(-215046.99 0 20.19692)
(-215082.49 0 15.155342)
(-215118.99 0 15.163002)
(-215154.99 0 15.17067)
(-215190.49 0 15.178346)
(-215226.49 0 15.186029)
(-215262.99 0 15.19372)
(-215299.49 0 15.201419)
(-215335.49 0 15.209125)
(-215371.49 0 15.21684)
(-215407.99 0 15.224562)
(-215443.99 0 15.232292)
(-215480.49 0 20.320041)
(-215516.99 0 15.247776)
(-215553.49 0 15.25553)
(-215590.49 0 20.351056)
(-215626.49 0 15.271061)
(-215662.99 0 15.278839)
(-215699.99 0 15.286624)
(-215736.49 0 15.294418)
(-215773.49 0 15.302219)
(-215810.49 0 20.413371)
(-215846.99 0 15.317845)
(-215883.99 0 15.32567)
(-215920.99 0 15.333504)
(-215957.99 0 20.455127)
(-215994.99 0 15.349194)
(-216031.99 0 15.357051)
(-216068.99 0 15.364917)
(-216105.99 0 15.37279)
(-216143.49 0 20.507562)
(-216180.99 0 15.388561)
(-216218.49 0 15.396459)
(-216255.49 0 15.404365)
(-216292.64 0 15.412278)
(-216330.19 0 15.934207)
(-216367.84 0 16.456673)
(-216405.34 0 16.46514)
(-216442.94 0 16.473616)
(-216480.59 0 16.482101)
(-216518.29 0 16.490595)
(-216556.04 0 16.499098)
(-216593.79 0 16.507609)
(-216631.64 0 16)
(-216669.54 0 16.524658)
(-216707.44 0 16.533196)
(-216745.39 0 16.541742)
(-216783.44 0 16.550297)
(-216821.49 0 16.558862)
(-216859.59 0 16.567435)
(-216897.79 0 16.576017)
(-216935.99 0 16.584607)
(-216974.24 0 16.593207)
(-217012.54 0 16.601816)
(-217050.89 0 16.610433)
(-217089.34 0 16.61906)
(-217127.79 0 16.627696)
(-217166.24 0 16.63634)
(-217204.79 0 16.644994)
(-217243.44 0 16.653656)
(-217282.09 0 16.662328)
(-217320.74 0 16.671008)
(-217359.49 0 16.679698)
(-217398.29 0 16.688396)
(-217437.14 0 16.697104)
(-217476.04 0 16.705821)
(-217514.94 0 16.714547)
(-217554.04 0 17.245885)
(-217592.94 0 16.732026)
(-217632.19 0 16.740779)
(-217670.99 0 16.749542)
(-217710.94 0 16.758314)
(-217748.69 0 16.767095)
(-217790.69 0 16.251638)
(-217824.99 0 17.833727)
(-217873.97 0 15.743899)
(-217895.16 0 19.742715)
(-217969.19 0 11.294983)
(-217943.27 0 27.490145)
(-218107.66 0 -10.886143)
(-217840.39 0 70.560379)
(-155784.8 0 -98249.562)
(-237746.43 0 -435.32649)
(-202196.7 0 -5757.1965)
(-220577.31 0 1868.2695)
(-211204.53 0 -1042.3453)
(-216262.26 0 566.55803)
(-213678.59 0 -265.86406)
(-215093.7 0 170.6399)
(-214405.38 0 -60.256088)
(-214821.05 0 65.310224)
(-214656.96 0 -5.0263885)
(-214797.51 0 30.173498)
(-214777.98 0 10.062893)
(-214842.5 0 25.169897)
(-214862.49 0 15.109544)
(-214906.49 0 20.156211)
(-214937.99 0 15.124779)
(-214975.99 0 20.176545)
(-215010.49 0 15.140045)
(-215046.99 0 20.19692)
(-215082.99 0 15.155342)
(-215118.49 0 15.163002)
(-215154.49 0 20.22756)
(-215190.99 0 20.237794)
(-215226.99 0 15.186029)
(-215262.99 0 15.19372)
(-215298.99 0 15.201419)
(-215334.99 0 20.278834)
(-215371.49 0 20.28912)
(-215407.99 0 20.299416)
(-215443.99 0 20.309723)
(-215480.49 0 20.320041)
(-215517.49 0 20.330368)
(-215553.49 0 15.25553)
(-215589.99 0 20.351056)
(-215626.99 0 20.361415)
(-215662.99 0 15.278839)
(-215699.99 0 20.382166)
(-215736.99 0 15.294418)
(-215772.99 0 15.302219)
(-215809.99 0 20.413371)
(-215847.49 0 20.423794)
(-215883.99 0 15.325671)
(-215920.49 0 20.444672)
(-215957.99 0 20.455127)
(-215994.99 0 20.465592)
(-216031.99 0 20.476069)
(-216069.49 0 20.486556)
(-216105.99 0 20.497054)
(-216143.49 0 20.507562)
(-216180.99 0 15.388561)
(-216217.99 0 20.528612)
(-216255.49 0 20.539153)
(-216292.79 0 20.549705)
(-216330.29 0 19.532254)
(-216367.79 0 20.05657)
(-216405.39 0 20.06689)
(-216442.94 0 19.56242)
(-216480.59 0 19.572495)
(-216518.29 0 19.582582)
(-216555.99 0 20.108275)
(-216593.84 0 19.602786)
(-216631.64 0 19.612903)
(-216669.49 0 20.139427)
(-216707.44 0 20.149832)
(-216745.39 0 20.160248)
(-216783.44 0 20.170675)
(-216821.49 0 20.181113)
(-216859.59 0 20.191561)
(-216897.79 0 20.20202)
(-216935.99 0 20.21249)
(-216974.24 0 20.222971)
(-217012.54 0 20.233463)
(-217050.89 0 20.243966)
(-217089.34 0 19.735134)
(-217127.79 0 20.265004)
(-217166.24 0 20.275539)
(-217204.84 0 19.76593)
(-217243.44 0 19.776217)
(-217282.04 0 20.307212)
(-217320.74 0 20.317791)
(-217359.49 0 20.328382)
(-217398.34 0 20.338983)
(-217437.14 0 19.827811)
(-217476.04 0 20.360219)
(-217514.94 0 19.848524)
(-217553.99 0 19.858897)
(-217592.94 0 20.392157)
(-217632.24 0 20.402825)
(-217670.99 0 19.890081)
(-217710.89 0 20.424195)
(-217748.74 0 20.434897)
(-217790.64 0 19.397117)
(-217824.99 0 21.505376)
(-217873.88 0 18.892679)
(-217895.42 0 23.943292)
(-217968.78 0 13.55398)
(-217944.42 0 33.377135)
(-218105.39 0 -12.674205)
(-217843.53 0 85.924757)
(-150380.29 0 -121630.41)
(-232629.15 0 605.45409)
(-202090.81 0 -6382.9787)
(-220327.98 0 2283.997)
(-211276.68 0 -1227.7625)
(-216220.17 0 681.87516)
(-213700.13 0 -316.02709)
(-215082.68 0 205.77164)
(-214411.39 0 -70.29877)
(-214818.04 0 70.334087)
(-214658.96 0 -5.0263885)
(-214796.5 0 35.202414)
(-214777.98 0 15.09434)
(-214841.99 0 30.203876)
(-214862.99 0 20.146059)
(-214906.49 0 25.195263)
(-214937.99 0 25.207966)
(-214975.99 0 20.176545)
(-215010.49 0 25.233409)
(-215046.99 0 20.19692)
(-215082.99 0 25.258904)
(-215118.49 0 25.27167)
(-215154.49 0 20.22756)
(-215190.99 0 25.297243)
(-215226.99 0 25.310048)
(-215262.99 0 25.322867)
(-215298.99 0 25.335698)
(-215334.99 0 25.348542)
(-215371.49 0 20.28912)
(-215407.99 0 25.37427)
(-215443.99 0 20.309723)
(-215480.49 0 20.320041)
(-215517.49 0 20.330368)
(-215553.49 0 25.425884)
(-215589.99 0 20.351056)
(-215626.99 0 25.451769)
(-215662.99 0 25.464731)
(-215699.99 0 20.382166)
(-215736.99 0 25.490696)
(-215772.99 0 25.503698)
(-215809.99 0 20.413371)
(-215847.49 0 20.423794)
(-215883.99 0 25.542784)
(-215920.49 0 25.55584)
(-215957.99 0 20.455127)
(-215994.99 0 25.58199)
(-216031.99 0 20.476069)
(-216068.99 0 25.608195)
(-216105.99 0 25.621317)
(-216143.99 0 20.507562)
(-216180.99 0 25.647602)
(-216217.99 0 25.660765)
(-216255.49 0 25.673941)
(-216292.74 0 25.687131)
(-216330.24 0 23.644307)
(-216367.79 0 23.142196)
(-216405.39 0 23.154103)
(-216442.99 0 23.680824)
(-216480.59 0 23.177955)
(-216518.24 0 23.705231)
(-216556.04 0 23.201856)
(-216593.84 0 23.213825)
(-216631.59 0 23.741935)
(-216669.49 0 23.2378)
(-216707.44 0 23.766469)
(-216745.39 0 23.778754)
(-216783.44 0 23.273856)
(-216821.49 0 23.803364)
(-216859.59 0 23.297955)
(-216897.79 0 23.310023)
(-216935.99 0 23.840373)
(-216974.24 0 23.852735)
(-217012.54 0 23.86511)
(-217050.94 0 23.358422)
(-217089.34 0 23.370553)
(-217127.74 0 23.902312)
(-217166.29 0 23.914739)
(-217204.84 0 23.407022)
(-217243.39 0 23.93963)
(-217282.04 0 23.952096)
(-217320.74 0 23.964574)
(-217359.49 0 23.455825)
(-217398.34 0 23.468057)
(-217437.14 0 24.002087)
(-217476.04 0 24.014618)
(-217514.99 0 24.027161)
(-217553.99 0 23.517115)
(-217592.89 0 24.052288)
(-217632.24 0 23.541721)
(-217670.99 0 24.077467)
(-217710.89 0 24.090076)
(-217748.79 0 24.62667)
(-217790.59 0 23.591088)
(-217825.04 0 25.177026)
(-217873.74 0 21.516662)
(-217895.67 0 28.353899)
(-217968.29 0 16.023115)
(-217945.76 0 39.526938)
(-218102.67 0 -13.936366)
(-217847.32 0 101.97316)
(-143596.59 0 -152223.06)
(-226220.82 0 2176.6325)
(-202030.36 0 -6648.3104)
(-220061.6 0 2704.7333)
(-211364.85 0 -1388.1233)
(-216171.07 0 787.1647)
(-213726.17 0 -361.17381)
(-215069.15 0 230.86575)
(-214418.9 0 -75.32011)
(-214814.53 0 85.405677)
(-214660.46 0 0)
(-214795.5 0 45.260246)
(-214778.48 0 20.125786)
(-214841.99 0 30.203876)
(-214862.98 0 25.182574)
(-214905.99 0 30.234316)
(-214938.48 0 30.249559)
(-214975.99 0 30.264817)
(-215010.49 0 30.280091)
(-215046.99 0 25.24615)
(-215082.49 0 30.310685)
(-215118.99 0 30.326005)
(-215154.49 0 30.34134)
(-215190.49 0 30.356691)
(-215226.99 0 30.372058)
(-215262.99 0 30.38744)
(-215298.99 0 30.402838)
(-215335.49 0 30.418251)
(-215371.49 0 25.3614)
(-215407.99 0 30.449125)
(-215444.49 0 30.464585)
(-215480.49 0 25.400051)
(-215516.99 0 25.412961)
(-215553.49 0 30.51106)
(-215589.99 0 25.43882)
(-215626.49 0 30.542123)
(-215663.49 0 30.557678)
(-215699.99 0 25.477707)
(-215736.49 0 30.588835)
(-215773.49 0 30.604438)
(-215810.49 0 25.516713)
(-215846.99 0 30.635691)
(-215883.49 0 30.651341)
(-215920.99 0 30.667007)
(-215957.99 0 25.568908)
(-215994.99 0 30.698388)
(-216031.99 0 30.714103)
(-216068.99 0 30.729834)
(-216106.49 0 25.621317)
(-216143.49 0 25.634453)
(-216180.49 0 30.777122)
(-216217.99 0 30.792918)
(-216255.49 0 30.808729)
(-216292.99 0 30.824557)
(-216330.54 0 29.298381)
(-216367.84 0 29.313448)
(-216405.34 0 29.328531)
(-216442.94 0 29.343629)
(-216480.59 0 29.873809)
(-216518.29 0 29.373873)
(-216556.04 0 29.389018)
(-216593.79 0 29.920041)
(-216631.64 0 29.935484)
(-216669.49 0 29.434547)
(-216707.39 0 29.449755)
(-216745.44 0 29.464978)
(-216783.44 0 29.480217)
(-216821.49 0 29.495472)
(-216859.64 0 29.510743)
(-216897.74 0 29.52603)
(-216935.94 0 29.541332)
(-216974.24 0 29.55665)
(-217012.59 0 29.571984)
(-217050.94 0 29.587335)
(-217089.29 0 30.122046)
(-217127.74 0 29.618083)
(-217166.29 0 29.633481)
(-217204.84 0 30.169051)
(-217243.39 0 30.184751)
(-217282.04 0 29.679771)
(-217320.79 0 29.695233)
(-217359.54 0 29.710711)
(-217398.29 0 29.726206)
(-217437.09 0 30.263501)
(-217476.04 0 29.757244)
(-217514.99 0 30.295116)
(-217553.99 0 30.310949)
(-217592.94 0 30.326797)
(-217632.24 0 29.819513)
(-217670.94 0 30.358545)
(-217710.84 0 29.850746)
(-217748.79 0 30.914331)
(-217790.58 0 29.882045)
(-217825.19 0 31.471282)
(-217873.57 0 27.289425)
(-217895.94 0 35.12733)
(-217967.71 0 21.013922)
(-217947.26 0 47.936925)
(-218099.46 0 -11.674993)
(-217851.87 0 120.59984)
(-134981.44 0 -174823.71)
(-218070.71 0 3347.5106)
(-202038.93 0 -5702.1277)
(-219801.86 0 2709.742)
(-211468.42 0 -1282.8865)
(-216117.52 0 762.09576)
(-213755.69 0 -331.076)
(-215054.13 0 230.86575)
(-214425.9 0 -65.277429)
(-214810.52 0 95.453404)
(-214662.96 0 10.052777)
(-214794.49 0 55.318079)
(-214779.47 0 30.188679)
(-214841.48 0 40.271835)
(-214862.98 0 40.292118)
(-214905.98 0 35.273369)
(-214937.98 0 35.291152)
(-214975.98 0 40.35309)
(-215010.98 0 40.373454)
(-215046.98 0 40.39384)
(-215082.48 0 35.362465)
(-215118.48 0 35.380339)
(-215154.48 0 40.45512)
(-215190.98 0 35.41614)
(-215226.98 0 35.434067)
(-215262.98 0 40.516586)
(-215298.98 0 40.537117)
(-215335.48 0 35.487959)
(-215371.48 0 40.57824)
(-215407.48 0 35.523979)
(-215444.48 0 40.619447)
(-215480.98 0 40.640081)
(-215516.98 0 40.660737)
(-215553.48 0 40.681414)
(-215589.98 0 40.702111)
(-215626.48 0 35.632476)
(-215663.48 0 35.650624)
(-215699.98 0 40.764331)
(-215736.48 0 40.785113)
(-215773.48 0 40.805917)
(-215809.98 0 40.826742)
(-215846.98 0 40.847587)
(-215883.98 0 40.868455)
(-215920.98 0 35.778175)
(-215957.98 0 40.910253)
(-215994.48 0 35.814786)
(-216031.98 0 40.952137)
(-216069.48 0 35.851472)
(-216106.48 0 40.994107)
(-216143.48 0 41.015124)
(-216180.48 0 41.036163)
(-216217.98 0 35.925071)
(-216255.48 0 35.943517)
(-216292.88 0 35.961983)
(-216330.38 0 39.578515)
(-216367.78 0 39.598869)
(-216405.38 0 39.619244)
(-216442.93 0 39.63964)
(-216480.58 0 39.660057)
(-216518.28 0 39.165164)
(-216555.98 0 39.700954)
(-216593.78 0 39.721434)
(-216631.63 0 39.741935)
(-216669.53 0 39.762458)
(-216707.43 0 39.266339)
(-216745.38 0 39.286637)
(-216783.43 0 39.824153)
(-216821.48 0 39.844761)
(-216859.58 0 39.86539)
(-216897.78 0 39.88604)
(-216935.98 0 39.388443)
(-216974.23 0 39.408867)
(-217012.53 0 39.429313)
(-217050.88 0 39.968855)
(-217089.33 0 39.989613)
(-217127.78 0 40.010392)
(-217166.23 0 40.031193)
(-217204.78 0 40.052016)
(-217243.43 0 40.07286)
(-217282.08 0 40.093726)
(-217320.73 0 40.114613)
(-217359.48 0 40.135523)
(-217398.28 0 40.156454)
(-217437.13 0 40.177407)
(-217476.03 0 39.676325)
(-217514.93 0 40.219378)
(-217553.98 0 40.240397)
(-217592.93 0 40.261438)
(-217632.23 0 40.282501)
(-217670.98 0 40.827009)
(-217710.83 0 39.800995)
(-217748.78 0 40.345821)
(-217790.53 0 39.31848)
(-217825.28 0 41.437189)
(-217873.39 0 38.310155)
(-217896.26 0 44.998687)
(-217967.07 0 31.678487)
(-217948.85 0 57.187911)
(-218095.77 0 1.5251118)
(-217857.64 0 131.91265)
(-125770.04 0 -90002.501)
(-209309.22 0 1811.3585)
(-202093.23 0 -2377.9725)
(-219620.35 0 1257.2001)
(-211559.18 0 -556.25157)
(-216076.16 0 345.95137)
(-213779.13 0 -140.45648)
(-215042.67 0 110.41405)
(-214432.39 0 -25.106703)
(-214807.04 0 45.21477)
(-214664.46 0 10.052777)
(-214793.5 0 30.173498)
(-214779.98 0 20.125786)
(-214840.99 0 25.169897)
(-214863.48 0 25.182574)
(-214906.49 0 20.156211)
(-214937.99 0 20.166373)
(-214975.49 0 20.176545)
(-215010.49 0 25.233409)
(-215047.49 0 25.24615)
(-215082.99 0 20.207123)
(-215118.49 0 20.217336)
(-215154.49 0 20.22756)
(-215190.99 0 20.237794)
(-215226.49 0 20.248038)
(-215262.49 0 25.322867)
(-215299.49 0 25.335698)
(-215335.49 0 20.278834)
(-215371.49 0 25.3614)
(-215407.99 0 20.299416)
(-215443.99 0 20.309723)
(-215480.49 0 25.400051)
(-215516.99 0 25.412961)
(-215553.49 0 25.425884)
(-215590.49 0 25.43882)
(-215626.99 0 20.361415)
(-215662.99 0 20.371785)
(-215699.49 0 25.477707)
(-215736.49 0 25.490696)
(-215773.49 0 25.503698)
(-215810.49 0 25.516713)
(-215846.99 0 20.423794)
(-215883.99 0 25.542784)
(-215920.99 0 20.444672)
(-215957.99 0 25.568908)
(-215994.99 0 20.465592)
(-216031.99 0 20.476069)
(-216068.99 0 20.486556)
(-216105.99 0 25.621317)
(-216143.49 0 25.634453)
(-216180.99 0 25.647602)
(-216218.49 0 20.528612)
(-216255.49 0 20.539153)
(-216292.64 0 20.549705)
(-216330.19 0 23.130301)
(-216367.84 0 22.627925)
(-216405.34 0 22.639568)
(-216442.94 0 23.166023)
(-216480.64 0 22.66289)
(-216518.29 0 22.674568)
(-216555.99 0 22.686259)
(-216593.79 0 22.697962)
(-216631.64 0 22.709677)
(-216669.54 0 22.721405)
(-216707.44 0 22.733144)
(-216745.39 0 22.744895)
(-216783.39 0 22.756659)
(-216821.49 0 23.285899)
(-216859.64 0 22.780223)
(-216897.79 0 22.792023)
(-216935.99 0 22.803835)
(-216974.24 0 22.81566)
(-217012.54 0 22.827497)
(-217050.89 0 22.839346)
(-217089.29 0 22.851207)
(-217127.74 0 23.382697)
(-217166.29 0 23.394853)
(-217204.84 0 22.886866)
(-217243.39 0 22.898777)
(-217282.04 0 23.431398)
(-217320.79 0 23.443605)
(-217359.54 0 22.934584)
(-217398.29 0 22.946545)
(-217437.14 0 22.958518)
(-217476.04 0 22.970504)
(-217514.94 0 22.982502)
(-217553.99 0 22.994513)
(-217592.94 0 23.006536)
(-217632.19 0 23.018572)
(-217670.99 0 23.554043)
(-217710.89 0 23.042681)
(-217748.84 0 23.054755)
(-217790.49 0 22.542595)
(-217825.29 0 23.603462)
(-217873.24 0 22.566256)
(-217896.58 0 25.255973)
(-217966.56 0 19.332808)
(-217950.13 0 30.696452)
(-218092.36 0 5.9952669)
(-217864.56 0 66.561431)
)
;

boundaryField
{
    inlet
    {
        type            extrapolatedCalculated;
        value           nonuniform List<vector> 10((0 0 -10977.744) (0 0 -27936.984) (0 0 -42360.59) (0 0 -60000) (0 0 -78619.655) (0 0 -98249.562) (0 0 -121630.41) (0 0 -152223.06) (0 0 -174823.71) (0 0 -90002.501));
    }
    outlet
    {
        type            extrapolatedCalculated;
        value           nonuniform List<vector> 10((-217253.97 0 20.994475) (-217261.95 0 39.042357) (-217268.81 0 41.30492) (-217277.65 0 54.617206) (-217289.56 0 70.560379) (-217304.46 0 85.924757) (-217322.22 0 101.97316) (-217343.22 0 120.59984) (-217368.06 0 131.91265) (-217393.36 0 66.561431));
    }
    walls
    {
        type            extrapolatedCalculated;
        value           nonuniform List<vector> 
100
(
(-125725 0 62.862502)
(-209310.08 0 104.65504)
(-202091.99 0 101.046)
(-219620.93 0 109.81046)
(-211558.85 0 105.77942)
(-216076.28 0 108.03814)
(-213779 0 106.8895)
(-215042.68 0 107.52134)
(-214432.32 0 107.21616)
(-214807.01 0 107.4035)
(-214664.41 0 107.33221)
(-214793.46 0 107.39673)
(-214779.94 0 107.38997)
(-214840.95 0 107.42047)
(-214863.44 0 107.43172)
(-214906.45 0 107.45322)
(-214937.94 0 107.46897)
(-214975.44 0 107.48772)
(-215010.44 0 107.50522)
(-215047.44 0 107.52372)
(-215082.94 0 107.54147)
(-215118.44 0 107.55922)
(-215154.44 0 107.57722)
(-215190.94 0 107.59547)
(-215226.44 0 107.61322)
(-215262.44 0 107.63122)
(-215299.44 0 107.64972)
(-215335.44 0 107.66772)
(-215371.44 0 107.68572)
(-215407.94 0 107.70397)
(-215443.94 0 107.72197)
(-215480.44 0 107.74022)
(-215516.94 0 107.75847)
(-215553.44 0 107.77672)
(-215590.44 0 107.79522)
(-215626.94 0 107.81347)
(-215662.94 0 107.83147)
(-215699.44 0 107.84972)
(-215736.44 0 107.86822)
(-215773.44 0 107.88672)
(-215810.44 0 107.90522)
(-215846.94 0 107.92347)
(-215883.94 0 107.94197)
(-215920.94 0 107.96047)
(-215957.94 0 107.97897)
(-215994.94 0 107.99747)
(-216031.94 0 108.01597)
(-216068.94 0 108.03447)
(-216105.94 0 108.05297)
(-216143.44 0 108.07172)
(-216180.94 0 108.09047)
(-216218.44 0 108.10922)
(-216255.44 0 108.12772)
(-216292.59 0 108.1463)
(-216330.14 0 108.16507)
(-216367.79 0 108.1839)
(-216405.29 0 108.20265)
(-216442.89 0 108.22145)
(-216480.59 0 108.2403)
(-216518.24 0 108.25912)
(-216555.94 0 108.27797)
(-216593.74 0 108.29687)
(-216631.59 0 108.3158)
(-216669.49 0 108.33475)
(-216707.39 0 108.3537)
(-216745.34 0 108.37267)
(-216783.34 0 108.39167)
(-216821.44 0 108.41072)
(-216859.59 0 108.4298)
(-216897.74 0 108.44887)
(-216935.94 0 108.46797)
(-216974.19 0 108.4871)
(-217012.49 0 108.50625)
(-217050.84 0 108.52542)
(-217089.24 0 108.54462)
(-217127.69 0 108.56385)
(-217166.24 0 108.58312)
(-217204.79 0 108.6024)
(-217243.34 0 108.62167)
(-217281.99 0 108.641)
(-217320.74 0 108.66037)
(-217359.49 0 108.67975)
(-217398.24 0 108.69912)
(-217437.09 0 108.71855)
(-217475.99 0 108.738)
(-217514.89 0 108.75745)
(-217553.94 0 108.77697)
(-217592.89 0 108.79645)
(-217632.14 0 108.81607)
(-217670.94 0 108.83547)
(-217710.84 0 108.85542)
(-217748.79 0 108.8744)
(-217790.44 0 108.89522)
(-217825.24 0 108.91262)
(-217873.2 0 108.9366)
(-217896.53 0 108.94827)
(-217966.51 0 108.98326)
(-217950.09 0 108.97505)
(-218092.31 0 109.04616)
(-217864.54 0 108.93227)
)
;
    }
    centreline
    {
        type            symmetryPlane;
    }
    frontAndBack
    {
        type            empty;
    }
}


// ************************************************************************* //
