/*--------------------------------*- C++ -*----------------------------------*\
  =========                 |
  \\      /  F ield         | OpenFOAM: The Open Source CFD Toolbox
   \\    /   O peration     | Website:  https://openfoam.org
    \\  /    A nd           | Version:  6
     \\/     M anipulation  |
\*---------------------------------------------------------------------------*/
FoamFile
{
    version     2.0;
    format      ascii;
    class       volScalarField;
    location    "10000";
    object      p;
}
// * * * * * * * * * * * * * * * * * * * * * * * * * * * * * * * * * * * * * //

dimensions      [0 2 -2 0 0 0 0];

internalField   nonuniform List<scalar> 
1000
(
21600782
21262729
21100921
20857793
20658143
20435822
20225350
20008600
19795092
19579826
19365430
19150523
18935830
18720970
18506144
18291245
18076330
17861369
17646378
17431348
17216284
17001183
16786046
16570874
16355665
16140420
15925139
15709822
15494468
15279079
15063653
14848190
14632691
14417156
14201584
13985976
13770331
13554649
13338931
13123176
12907384
12691556
12475690
12259788
12043848
11827872
11611858
11395808
11179720
10963595
10747433
10531234
10314997
10098723
9882411.1
9666062
9449675.4
9233251.3
9016789.5
8800290.1
8583752.9
8367178
8150565.3
7933914.7
7717226.2
7500499.8
7283735.4
7066933
6850092.4
6633213.7
6416296.8
6199341.7
5982348.3
5765316.6
5548246.5
5331137.9
5113990.9
4896805.4
4679581.3
4462318.5
4245017.1
4027677
3810298.1
3592880.4
3375423.8
3157928.2
2940393.9
2722820.2
2505208
2287555.7
2069866.1
1852133.8
1634368.7
1416552.2
1198719.1
980803.66
762929.9
544862.97
327049.59
108636.51
21598587
21263145
21100545
20857947
20658058
20435866
20225327
20008613
19795086
19579830
19365428
19150524
18935830
18720971
18506144
18291246
18076331
17861370
17646379
17431349
17216284
17001183
16786047
16570874
16355665
16140420
15925139
15709822
15494469
15279079
15063653
14848191
14632692
14417156
14201585
13985976
13770331
13554650
13338931
13123176
12907385
12691556
12475690
12259788
12043849
11827872
11611859
11395808
11179721
10963596
10747433
10531234
10314997
10098723
9882411.5
9666062.4
9449675.8
9233251.7
9016789.9
8800290.5
8583753.3
8367178.4
8150565.7
7933915.1
7717226.7
7500500.2
7283735.8
7066933.4
6850092.8
6633214.1
6416297.2
6199342.1
5982348.7
5765317
5548246.9
5331138.3
5113991.3
4896805.8
4679581.7
4462318.9
4245017.5
4027677.4
3810298.5
3592880.8
3375424.2
3157928.7
2940394.3
2722820.6
2505208.4
2287556.1
2069866.5
1852134.3
1634369
1416552.7
1198719.3
980804.34
762929.79
544864.36
327047.82
108640.5
21595196
21263155
21100259
20858035
20658007
20435894
20225314
20008621
19795083
19579833
19365428
19150525
18935830
18720971
18506144
18291246
18076331
17861371
17646379
17431349
17216285
17001184
16786048
16570875
16355666
16140421
15925140
15709823
15494470
15279080
15063654
14848191
14632692
14417157
14201585
13985977
13770332
13554650
13338932
13123177
12907385
12691557
12475691
12259789
12043849
11827873
11611860
11395809
11179721
10963596
10747434
10531235
10314998
10098724
9882412.2
9666063.1
9449676.5
9233252.4
9016790.6
8800291.2
8583754
8367179.1
8150566.4
7933915.8
7717227.4
7500500.9
7283736.5
7066934.1
6850093.5
6633214.8
6416297.9
6199342.8
5982349.4
5765317.7
5548247.6
5331139
5113992
4896806.5
4679582.4
4462319.6
4245018.2
4027678.1
3810299.2
3592881.5
3375424.9
3157929.4
2940395
2722821.3
2505209.1
2287556.8
2069867.2
1852135
1634369.7
1416553.5
1198720
980805.21
762930.18
544865.67
327047
108643.93
21590117
21263030
21099916
20858129
20657951
20435923
20225300
20008630
19795080
19579836
19365428
19150527
18935831
18720973
18506145
18291248
18076332
17861372
17646380
17431350
17216286
17001185
16786049
16570876
16355667
16140422
15925141
15709824
15494471
15279081
15063655
14848192
14632694
14417158
14201586
13985978
13770333
13554652
13338933
13123178
12907386
12691558
12475692
12259790
12043850
11827874
11611861
11395810
11179722
10963597
10747435
10531236
10314999
10098725
9882413.3
9666064.2
9449677.6
9233253.4
9016791.7
8800292.2
8583755.1
8367180.2
8150567.5
7933916.9
7717228.4
7500502
7283737.6
7066935.1
6850094.6
6633215.9
6416299
6199343.9
5982350.5
5765318.8
5548248.7
5331140.1
5113993.1
4896807.6
4679583.4
4462320.7
4245019.3
4027679.2
3810300.3
3592882.5
3375426
3157930.4
2940396
2722822.4
2505210.2
2287557.9
2069868.2
1852136.1
1634370.8
1416554.6
1198720.9
980806.46
762930.9
544867.4
327046.3
108648.35
21583199
21262910
21099468
20858260
20657875
20435964
20225281
20008642
19795075
19579840
19365428
19150529
18935832
18720974
18506147
18291249
18076334
17861373
17646382
17431352
17216288
17001187
16786050
16570877
16355669
16140424
15925143
15709825
15494472
15279082
15063656
14848194
14632695
14417160
14201588
13985979
13770335
13554653
13338935
13123180
12907388
12691559
12475694
12259791
12043852
11827875
11611862
11395811
11179724
10963599
10747437
10531237
10315000
10098726
9882414.7
9666065.6
9449679
9233254.9
9016793.1
8800293.7
8583756.5
8367181.6
8150568.9
7933918.3
7717229.8
7500503.4
7283739
7066936.5
6850096
6633217.3
6416300.4
6199345.3
5982351.9
5765320.2
5548250.1
5331141.5
5113994.5
4896809
4679584.9
4462322.1
4245020.7
4027680.6
3810301.7
3592884
3375427.4
3157931.9
2940397.5
2722823.8
2505211.6
2287559.4
2069869.6
1852137.5
1634372.2
1416556.1
1198722.2
980808.13
762931.87
544869.72
327045.36
108654.31
21574397
21262830
21098929
20858427
20657780
20436015
20225257
20008657
19795070
19579846
19365428
19150532
18935833
18720976
18506148
18291251
18076335
17861375
17646383
17431354
17216289
17001188
16786052
16570879
16355670
16140425
15925144
15709827
15494474
15279084
15063658
14848196
14632697
14417161
14201590
13985981
13770336
13554655
13338936
13123181
12907390
12691561
12475695
12259793
12043854
11827877
11611864
11395813
11179725
10963601
10747438
10531239
10315002
10098728
9882416.4
9666067.4
9449680.8
9233256.6
9016794.9
8800295.4
8583758.3
8367183.4
8150570.6
7933920.1
7717231.6
7500505.2
7283740.8
7066938.3
6850097.8
6633219.1
6416302.2
6199347.1
5982353.7
5765322
5548251.9
5331143.3
5113996.3
4896810.8
4679586.6
4462323.9
4245022.5
4027682.4
3810303.5
3592885.7
3375429.2
3157933.6
2940399.3
2722825.6
2505213.4
2287561.1
2069871.4
1852139.3
1634373.9
1416558
1198723.9
980810.22
762933.05
544872.63
327044.23
108661.76
21563554
21262823
21098318
20858633
20657667
20436077
20225228
20008676
19795063
19579853
19365427
19150535
18935834
18720979
18506150
18291253
18076337
17861377
17646385
17431356
17216291
17001190
16786054
16570881
16355672
16140427
15925146
15709829
15494476
15279086
15063660
14848198
14632699
14417163
14201592
13985983
13770338
13554657
13338938
13123183
12907392
12691563
12475697
12259795
12043856
11827879
11611866
11395815
11179728
10963603
10747440
10531241
10315004
10098730
9882418.5
9666069.5
9449682.9
9233258.7
9016796.9
8800297.5
8583760.4
8367185.4
8150572.7
7933922.2
7717233.7
7500507.3
7283742.9
7066940.4
6850099.9
6633221.2
6416304.3
6199349.2
5982355.8
5765324.1
5548253.9
5331145.4
5113998.4
4896812.8
4679588.7
4462326
4245024.6
4027684.5
3810305.6
3592887.8
3375431.3
3157935.7
2940401.3
2722827.7
2505215.5
2287563.2
2069873.5
1852141.4
1634375.9
1416560.2
1198725.8
980812.69
762934.45
544876.07
327042.95
108670.64
21550077
21262951
21097654
20858883
20657535
20436151
20225194
20008698
19795056
19579860
19365427
19150539
18935836
18720982
18506152
18291256
18076340
17861379
17646388
17431358
17216294
17001193
16786056
16570884
16355675
16140430
15925149
15709832
15494478
15279089
15063662
14848200
14632701
14417166
14201594
13985986
13770341
13554659
13338941
13123186
12907394
12691565
12475700
12259798
12043858
11827882
11611868
11395818
11179730
10963605
10747443
10531244
10315007
10098733
9882421
9666071.9
9449685.3
9233261.2
9016799.4
8800300
8583762.8
8367187.9
8150575.2
7933924.6
7717236.2
7500509.8
7283745.3
7066942.9
6850102.3
6633223.6
6416306.8
6199351.7
5982358.3
5765326.5
5548256.4
5331147.9
5114000.9
4896815.3
4679591.2
4462328.5
4245027.1
4027686.9
3810308
3592890.3
3375433.8
3157938.2
2940403.8
2722830.2
2505217.9
2287565.7
2069876
1852144
1634378.4
1416562.8
1198728
980815.62
762936.1
544880.15
327041.58
108681.14
21533117
21263258
21096990
20859173
20657390
20436234
20225156
20008722
19795048
19579870
19365427
19150544
18935838
18720985
18506155
18291259
18076343
17861383
17646391
17431361
17216297
17001196
16786060
16570887
16355678
16140433
15925152
15709835
15494481
15279092
15063666
14848203
14632704
14417169
14201597
13985989
13770344
13554662
13338944
13123189
12907397
12691569
12475703
12259801
12043861
11827885
11611872
11395821
11179733
10963608
10747446
10531247
10315010
10098736
9882424.2
9666075.2
9449688.6
9233264.4
9016802.7
8800303.2
8583766.1
8367191.2
8150578.5
7933927.9
7717239.4
7500513
7283748.6
7066946.1
6850105.6
6633226.9
6416310
6199354.9
5982361.5
5765329.8
5548259.7
5331151.1
5114004.1
4896818.6
4679594.5
4462331.7
4245030.3
4027690.2
3810311.3
3592893.6
3375437
3157941.5
2940407.1
2722833.5
2505221.2
2287569
2069879.2
1852147.3
1634381.6
1416566.2
1198731
980819.38
762938.45
544885.19
327040.73
108693.56
21515121
21263620
21096515
20859424
20657279
20436303
20225128
20008744
19795043
19579879
19365429
19150550
18935842
18720990
18506160
18291263
18076347
17861387
17646396
17431366
17216301
17001200
16786064
16570891
16355682
16140438
15925157
15709839
15494486
15279096
15063670
14848208
14632709
14417174
14201602
13985993
13770348
13554667
13338949
13123194
12907402
12691573
12475708
12259805
12043866
11827889
11611876
11395825
11179738
10963613
10747451
10531251
10315014
10098740
9882428.7
9666079.6
9449693
9233268.9
9016807.1
8800307.6
8583770.5
8367195.6
8150582.9
7933932.3
7717243.8
7500517.4
7283753
7066950.6
6850110
6633231.3
6416314.4
6199359.3
5982365.9
5765334.2
5548264.1
5331155.6
5114008.6
4896823
4679598.9
4462336.2
4245034.8
4027694.6
3810315.7
3592898
3375441.4
3157945.9
2940411.5
2722837.9
2505225.6
2287573.5
2069883.6
1852151.7
1634385.9
1416570.7
1198735.3
980824.19
762942.13
544891.03
327041.87
108706.21
)
;

boundaryField
{
    inlet
    {
        type            fixedFluxPressure;
        gradient        uniform 0;
        value           nonuniform List<scalar> 10(21600782 21598587 21595196 21590117 21583199 21574397 21563554 21550077 21533117 21515121);
    }
    outlet
    {
        type            totalPressure;
        rho             rho;
        psi             none;
        gamma           1;
        p0              uniform 0;
        value           uniform 0;
    }
    walls
    {
        type            fixedFluxPressure;
        gradient        uniform 0;
        value           nonuniform List<scalar> 
100
(
21515121
21263620
21096515
20859424
20657279
20436303
20225128
20008744
19795043
19579879
19365429
19150550
18935842
18720990
18506160
18291263
18076347
17861387
17646396
17431366
17216301
17001200
16786064
16570891
16355682
16140438
15925157
15709839
15494486
15279096
15063670
14848208
14632709
14417174
14201602
13985993
13770348
13554667
13338949
13123194
12907402
12691573
12475708
12259805
12043866
11827889
11611876
11395825
11179738
10963613
10747451
10531251
10315014
10098740
9882428.7
9666079.6
9449693
9233268.9
9016807.1
8800307.6
8583770.5
8367195.6
8150582.9
7933932.3
7717243.8
7500517.4
7283753
7066950.6
6850110
6633231.3
6416314.4
6199359.3
5982365.9
5765334.2
5548264.1
5331155.6
5114008.6
4896823
4679598.9
4462336.2
4245034.8
4027694.6
3810315.7
3592898
3375441.4
3157945.9
2940411.5
2722837.9
2505225.6
2287573.5
2069883.6
1852151.7
1634385.9
1416570.7
1198735.3
980824.19
762942.13
544891.03
327041.87
108706.21
)
;
    }
    centreline
    {
        type            symmetryPlane;
    }
    frontAndBack
    {
        type            empty;
    }
}


// ************************************************************************* //
