/*--------------------------------*- C++ -*----------------------------------*\
  =========                 |
  \\      /  F ield         | OpenFOAM: The Open Source CFD Toolbox
   \\    /   O peration     | Website:  https://openfoam.org
    \\  /    A nd           | Version:  6
     \\/     M anipulation  |
\*---------------------------------------------------------------------------*/
FoamFile
{
    version     2.0;
    format      ascii;
    class       volVectorField;
    location    "10000";
    object      U;
}
// * * * * * * * * * * * * * * * * * * * * * * * * * * * * * * * * * * * * * //

dimensions      [0 1 -1 0 0 0 0];

internalField   nonuniform List<vector> 
1000
(
(1.2270805 0 0.013701096)
(1.2150332 0 0.0032942389)
(1.1054872 0 0.0021175856)
(1.1262427 0 5.9979736e-05)
(1.105398 0 0.00030409012)
(1.1129186 0 -2.7915345e-05)
(1.1071391 0 9.7630023e-05)
(1.1086914 0 2.1013167e-05)
(1.1064718 0 5.8836173e-05)
(1.106249 0 3.8443353e-05)
(1.1049816 0 4.8981502e-05)
(1.104264 0 4.3366009e-05)
(1.1032585 0 4.6244194e-05)
(1.1024048 0 4.4667389e-05)
(1.1014719 0 4.5429698e-05)
(1.1005813 0 4.4964221e-05)
(1.0996691 0 4.5143383e-05)
(1.0987688 0 4.4984124e-05)
(1.0978629 0 4.5002599e-05)
(1.0969605 0 4.4927777e-05)
(1.0960569 0 4.4901986e-05)
(1.0951546 0 4.4850479e-05)
(1.0942522 0 4.4812514e-05)
(1.0933505 0 4.476747e-05)
(1.092449 0 4.472618e-05)
(1.091548 0 4.4682953e-05)
(1.0906473 0 4.4640779e-05)
(1.0897471 0 4.4598087e-05)
(1.0888473 0 4.4555702e-05)
(1.0879479 0 4.451319e-05)
(1.0870489 0 4.447078e-05)
(1.0861502 0 4.4428351e-05)
(1.085252 0 4.4385967e-05)
(1.0843542 0 4.4343595e-05)
(1.0834568 0 4.4301251e-05)
(1.0825598 0 4.4258928e-05)
(1.0816632 0 4.4216628e-05)
(1.0807669 0 4.4174351e-05)
(1.0798711 0 4.4132097e-05)
(1.0789757 0 4.4089866e-05)
(1.0780807 0 4.4047658e-05)
(1.0771861 0 4.4005473e-05)
(1.0762919 0 4.396331e-05)
(1.0753981 0 4.392117e-05)
(1.0745046 0 4.3879054e-05)
(1.0736116 0 4.383696e-05)
(1.072719 0 4.3794889e-05)
(1.0718268 0 4.3752841e-05)
(1.070935 0 4.3710815e-05)
(1.0700436 0 4.3668813e-05)
(1.0691526 0 4.3626833e-05)
(1.068262 0 4.3584876e-05)
(1.0673718 0 4.3542942e-05)
(1.0664819 0 4.3501031e-05)
(1.0655925 0 4.3459143e-05)
(1.0647035 0 4.3417278e-05)
(1.0638149 0 4.3375435e-05)
(1.0629267 0 4.3333615e-05)
(1.0620389 0 4.3291818e-05)
(1.0611515 0 4.3250044e-05)
(1.0602645 0 4.3208293e-05)
(1.0593778 0 4.3166564e-05)
(1.0584916 0 4.3124858e-05)
(1.0576058 0 4.3083175e-05)
(1.0567204 0 4.3041515e-05)
(1.0558354 0 4.2999878e-05)
(1.0549508 0 4.2958263e-05)
(1.0540665 0 4.2916671e-05)
(1.0531827 0 4.2875102e-05)
(1.0522993 0 4.2833556e-05)
(1.0514163 0 4.2792032e-05)
(1.0505336 0 4.2750531e-05)
(1.0496514 0 4.2709054e-05)
(1.0487696 0 4.2667598e-05)
(1.0478882 0 4.2626166e-05)
(1.0470071 0 4.2584754e-05)
(1.0461265 0 4.2543372e-05)
(1.0452463 0 4.2501999e-05)
(1.0443664 0 4.2460675e-05)
(1.043487 0 4.2419323e-05)
(1.042608 0 4.2378088e-05)
(1.0417293 0 4.2336698e-05)
(1.0408511 0 4.2295668e-05)
(1.0399732 0 4.2254023e-05)
(1.0390958 0 4.2213609e-05)
(1.0382187 0 4.2170931e-05)
(1.0373422 0 4.2132603e-05)
(1.0364657 0 4.2086107e-05)
(1.0355902 0 4.2055128e-05)
(1.0347141 0 4.1994859e-05)
(1.0338403 0 4.1990072e-05)
(1.0329632 0 4.1880429e-05)
(1.0320936 0 4.196932e-05)
(1.031211 0 4.1683449e-05)
(1.030354 0 4.2109815e-05)
(1.0294495 0 4.1203729e-05)
(1.0286355 0 4.2894879e-05)
(1.027648 0 3.9886486e-05)
(1.0269806 0 4.7116212e-05)
(1.0256473 0 3.2870855e-05)
(1.2013159 0 0.040694325)
(1.1910493 0 0.0099542)
(1.0839987 0 0.0062130627)
(1.1045921 0 0.00021908033)
(1.0841137 0 0.00088470361)
(1.0915292 0 -7.0706577e-05)
(1.0858443 0 0.00028598373)
(1.0873767 0 6.6853921e-05)
(1.0851953 0 0.00017475541)
(1.0849798 0 0.00011650737)
(1.0837359 0 0.00014658671)
(1.0830332 0 0.0001305458)
(1.082047 0 0.00013875775)
(1.0812103 0 0.000134249)
(1.0802957 0 0.00013641955)
(1.0794226 0 0.00013508412)
(1.0785284 0 0.00013558952)
(1.0776458 0 0.00013512851)
(1.0767577 0 0.00013517506)
(1.0758731 0 0.00013495518)
(1.0749873 0 0.00013487533)
(1.0741027 0 0.00013472204)
(1.0732181 0 0.00013460743)
(1.0723341 0 0.0001344726)
(1.0714504 0 0.0001343485)
(1.0705671 0 0.00013421887)
(1.0696842 0 0.00013409225)
(1.0688017 0 0.00013396415)
(1.0679196 0 0.00013383693)
(1.0670379 0 0.00013370936)
(1.0661565 0 0.00013358207)
(1.0652756 0 0.00013345474)
(1.064395 0 0.00013332754)
(1.0635149 0 0.00013320038)
(1.0626351 0 0.0001330733)
(1.0617558 0 0.00013294628)
(1.0608768 0 0.00013281934)
(1.0599982 0 0.00013269246)
(1.05912 0 0.00013256565)
(1.0582422 0 0.0001324389)
(1.0573648 0 0.00013231223)
(1.0564878 0 0.00013218563)
(1.0556112 0 0.00013205909)
(1.054735 0 0.00013193262)
(1.0538592 0 0.00013180623)
(1.0529837 0 0.0001316799)
(1.0521087 0 0.00013155363)
(1.051234 0 0.00013142744)
(1.0503598 0 0.00013130132)
(1.0494859 0 0.00013117526)
(1.0486124 0 0.00013104927)
(1.0477393 0 0.00013092335)
(1.0468666 0 0.0001307975)
(1.0459943 0 0.00013067172)
(1.0451224 0 0.00013054601)
(1.0442509 0 0.00013042036)
(1.0433798 0 0.00013029479)
(1.0425091 0 0.00013016928)
(1.0416387 0 0.00013004384)
(1.0407688 0 0.00012991847)
(1.0398992 0 0.00012979316)
(1.03903 0 0.00012966793)
(1.0381612 0 0.00012954276)
(1.0372929 0 0.00012941766)
(1.0364249 0 0.00012929263)
(1.0355573 0 0.00012916767)
(1.03469 0 0.00012904278)
(1.0338232 0 0.00012891795)
(1.0329568 0 0.0001287932)
(1.0320908 0 0.00012866851)
(1.0312251 0 0.00012854389)
(1.0303599 0 0.00012841933)
(1.029495 0 0.00012829485)
(1.0286305 0 0.00012817043)
(1.0277664 0 0.00012804609)
(1.0269027 0 0.0001279218)
(1.0260394 0 0.00012779761)
(1.0251765 0 0.00012767344)
(1.024314 0 0.00012754941)
(1.0234519 0 0.00012742531)
(1.0225901 0 0.00012730155)
(1.0217288 0 0.00012717734)
(1.0208678 0 0.00012705417)
(1.0200072 0 0.00012692924)
(1.0191471 0 0.00012680784)
(1.0182872 0 0.00012667997)
(1.0174279 0 0.00012656454)
(1.0165687 0 0.00012642575)
(1.0157104 0 0.00012633135)
(1.0148515 0 0.00012615316)
(1.013995 0 0.0001261337)
(1.0131351 0 0.00012581426)
(1.0122826 0 0.00012606284)
(1.0114173 0 0.00012523926)
(1.0105773 0 0.00012645375)
(1.0096905 0 0.00012385706)
(1.0088927 0 0.00012869688)
(1.0079243 0 0.0001201083)
(1.0072707 0 0.00014087696)
(1.0059633 0 9.9783438e-05)
(1.1500586 0 0.066708613)
(1.1431636 0 0.016508101)
(1.0410376 0 0.010025391)
(1.0612992 0 0.00042010623)
(1.041545 0 0.0014202609)
(1.0487511 0 -9.4502478e-05)
(1.0432544 0 0.00046409889)
(1.0447475 0 0.0001186644)
(1.0426422 0 0.00028832752)
(1.0424414 0 0.00019662243)
(1.0412442 0 0.00024394267)
(1.0405714 0 0.00021868422)
(1.039624 0 0.00023159623)
(1.0388213 0 0.00022448785)
(1.0379432 0 0.00022789205)
(1.0371054 0 0.00022577805)
(1.0362469 0 0.00022656151)
(1.0353999 0 0.00022582381)
(1.0345474 0 0.00022588506)
(1.0336983 0 0.00022552691)
(1.0328481 0 0.0002253892)
(1.031999 0 0.00022513589)
(1.0311499 0 0.00022494348)
(1.0303014 0 0.00022471925)
(1.0294532 0 0.0002245119)
(1.0286054 0 0.00022429586)
(1.0277579 0 0.00022408457)
(1.0269108 0 0.00022387095)
(1.0260641 0 0.00022365873)
(1.0252178 0 0.00022344595)
(1.0243719 0 0.00022323364)
(1.0235263 0 0.00022302126)
(1.0226811 0 0.00022280909)
(1.0218363 0 0.00022259698)
(1.0209919 0 0.00022238501)
(1.0201478 0 0.00022217315)
(1.0193041 0 0.0002219614)
(1.0184608 0 0.00022174977)
(1.0176179 0 0.00022153825)
(1.0167753 0 0.00022132684)
(1.0159332 0 0.00022111555)
(1.0150914 0 0.00022090438)
(1.0142499 0 0.00022069331)
(1.0134089 0 0.00022048237)
(1.0125682 0 0.00022027153)
(1.0117279 0 0.00022006081)
(1.010888 0 0.0002198502)
(1.0100485 0 0.00021963971)
(1.0092093 0 0.00021942933)
(1.0083705 0 0.00021921907)
(1.0075321 0 0.00021900892)
(1.0066941 0 0.00021879888)
(1.0058564 0 0.00021858896)
(1.0050191 0 0.00021837915)
(1.0041822 0 0.00021816945)
(1.0033457 0 0.00021795987)
(1.0025095 0 0.00021775041)
(1.0016738 0 0.00021754105)
(1.0008384 0 0.00021733181)
(1.0000033 0 0.00021712269)
(0.99916868 0 0.00021691368)
(0.9983344 0 0.00021670478)
(0.9975005 0 0.00021649599)
(0.99666697 0 0.00021628732)
(0.99583382 0 0.00021607876)
(0.99500104 0 0.00021587032)
(0.99416864 0 0.00021566199)
(0.99333661 0 0.00021545377)
(0.99250496 0 0.00021524567)
(0.99167369 0 0.00021503768)
(0.99084279 0 0.00021482981)
(0.99001226 0 0.00021462204)
(0.98918211 0 0.0002144144)
(0.98835234 0 0.00021420686)
(0.98752293 0 0.00021399944)
(0.98669391 0 0.00021379212)
(0.98586526 0 0.00021358495)
(0.98503698 0 0.00021337783)
(0.98420908 0 0.00021317094)
(0.98338155 0 0.00021296394)
(0.9825544 0 0.00021275747)
(0.98172762 0 0.00021255032)
(0.98090122 0 0.0002123448)
(0.98007518 0 0.00021213651)
(0.97924955 0 0.00021193379)
(0.97842421 0 0.00021172087)
(0.9775994 0 0.00021152758)
(0.97677469 0 0.00021129746)
(0.97595087 0 0.00021113736)
(0.97512644 0 0.00021084512)
(0.97430426 0 0.0002108032)
(0.97347889 0 0.00021028821)
(0.97266063 0 0.00021066906)
(0.97183 0 0.00020935908)
(0.97102384 0 0.00021126383)
(0.97017233 0 0.00020715963)
(0.96940711 0 0.00021479067)
(0.96847669 0 0.00020127607)
(0.9678511 0 0.00023411612)
(0.96659521 0 0.00016887398)
(1.0737527 0 0.09145216)
(1.0715152 0 0.022554412)
(0.97666135 0 0.013562319)
(0.99636426 0 0.00060278015)
(0.97769828 0 0.0019292886)
(0.98458211 0 -0.00011159467)
(0.97937069 0 0.00063825501)
(0.9808031 0 0.00017350722)
(0.97881288 0 0.00040155709)
(0.97863364 0 0.00027822396)
(0.97750691 0 0.00034183638)
(0.97687879 0 0.0003078602)
(0.97598949 0 0.00032520998)
(0.97523792 0 0.00031563937)
(0.97441455 0 0.00032020473)
(0.97362943 0 0.00031734987)
(0.97282476 0 0.00031839122)
(0.97203091 0 0.00031738706)
(0.97123191 0 0.00031745726)
(0.97043615 0 0.0003169635)
(0.96963923 0 0.00031676618)
(0.96884346 0 0.0003164134)
(0.96804762 0 0.00031614253)
(0.96725236 0 0.00031582887)
(0.96645734 0 0.00031553793)
(0.96566272 0 0.0003152353)
(0.96486844 0 0.00031493906)
(0.96407452 0 0.00031463971)
(0.96328094 0 0.00031434223)
(0.96248773 0 0.00031404401)
(0.96169486 0 0.00031374642)
(0.96090235 0 0.00031344875)
(0.96011019 0 0.00031315136)
(0.95931839 0 0.00031285407)
(0.95852693 0 0.00031255697)
(0.95773583 0 0.00031226001)
(0.95694509 0 0.00031196322)
(0.95615469 0 0.00031166659)
(0.95536465 0 0.00031137012)
(0.95457496 0 0.0003110738)
(0.95378563 0 0.00031077765)
(0.95299664 0 0.00031048166)
(0.95220801 0 0.00031018582)
(0.95141974 0 0.00030989014)
(0.95063181 0 0.00030959463)
(0.94984424 0 0.00030929927)
(0.94905702 0 0.00030900407)
(0.94827015 0 0.00030870903)
(0.94748363 0 0.00030841415)
(0.94669747 0 0.00030811943)
(0.94591166 0 0.00030782487)
(0.9451262 0 0.00030753047)
(0.94434109 0 0.00030723622)
(0.94355633 0 0.00030694214)
(0.94277193 0 0.00030664822)
(0.94198788 0 0.00030635445)
(0.94120418 0 0.00030606084)
(0.94042083 0 0.00030576739)
(0.93963784 0 0.0003054741)
(0.93885519 0 0.00030518097)
(0.9380729 0 0.000304888)
(0.93729096 0 0.00030459519)
(0.93650937 0 0.00030430254)
(0.93572813 0 0.00030401004)
(0.93494725 0 0.0003037177)
(0.93416671 0 0.00030342553)
(0.93338653 0 0.00030313351)
(0.93260669 0 0.00030284165)
(0.93182721 0 0.00030254995)
(0.93104808 0 0.0003022584)
(0.93026931 0 0.00030196702)
(0.92949088 0 0.00030167579)
(0.9287128 0 0.00030138473)
(0.92793508 0 0.00030109381)
(0.9271577 0 0.00030080307)
(0.92638068 0 0.00030051246)
(0.92560401 0 0.00030022206)
(0.92482769 0 0.00029993173)
(0.92405172 0 0.00029964172)
(0.9232761 0 0.00029935156)
(0.92250083 0 0.00029906214)
(0.92172591 0 0.00029877179)
(0.92095135 0 0.00029848364)
(0.92017712 0 0.00029819178)
(0.91940328 0 0.00029790742)
(0.91862971 0 0.00029760933)
(0.91785664 0 0.00029733767)
(0.91708365 0 0.00029701644)
(0.91631151 0 0.00029678945)
(0.91553878 0 0.00029638463)
(0.91476818 0 0.00029631674)
(0.91399456 0 0.00029561212)
(0.91322768 0 0.00029611326)
(0.91244904 0 0.00029433868)
(0.91169364 0 0.00029689111)
(0.91089515 0 0.00029135679)
(0.91017868 0 0.00030161614)
(0.90930537 0 0.00028344492)
(0.90872152 0 0.00032756096)
(0.90754297 0 0.00023980412)
(0.97306775 0 0.11435071)
(0.97631458 0 0.027889912)
(0.89095869 0 0.016739631)
(0.90978544 0 0.00075678772)
(0.89258447 0 0.0024052977)
(0.89901834 0 -0.0001208684)
(0.8941957 0 0.00080780911)
(0.89554227 0 0.00023213602)
(0.89370797 0 0.00051456504)
(0.8935562 0 0.00036178548)
(0.89252405 0 0.00044056016)
(0.89195515 0 0.00039846188)
(0.89114359 0 0.0004199368)
(0.89045997 0 0.0004080677)
(0.88970965 0 0.00041370775)
(0.88899486 0 0.00041015692)
(0.88826189 0 0.00041143207)
(0.88753897 0 0.00041017358)
(0.88681126 0 0.00041024586)
(0.88608655 0 0.00040961959)
(0.88536076 0 0.00040936051)
(0.88463603 0 0.00040890888)
(0.88391123 0 0.0004085587)
(0.88318696 0 0.00040815554)
(0.8824629 0 0.00040778053)
(0.88173922 0 0.00040739104)
(0.88101583 0 0.00040700947)
(0.88029278 0 0.00040662405)
(0.87957004 0 0.00040624096)
(0.87884762 0 0.00040585697)
(0.87812553 0 0.00040547376)
(0.87740376 0 0.00040509045)
(0.87668231 0 0.00040470751)
(0.87596118 0 0.00040432468)
(0.87524037 0 0.00040394211)
(0.87451988 0 0.00040355971)
(0.87379971 0 0.00040317754)
(0.87307986 0 0.00040279556)
(0.87236034 0 0.00040241379)
(0.87164113 0 0.00040203222)
(0.87092225 0 0.00040165085)
(0.87020369 0 0.00040126969)
(0.86948544 0 0.00040088874)
(0.86876752 0 0.00040050799)
(0.86804992 0 0.00040012744)
(0.86733264 0 0.0003997471)
(0.86661568 0 0.00039936696)
(0.86589904 0 0.00039898702)
(0.86518272 0 0.00039860729)
(0.86446672 0 0.00039822777)
(0.86375104 0 0.00039784844)
(0.86303568 0 0.00039746932)
(0.86232065 0 0.00039709041)
(0.86160593 0 0.0003967117)
(0.86089153 0 0.00039633319)
(0.86017745 0 0.00039595489)
(0.85946369 0 0.00039557679)
(0.85875026 0 0.00039519889)
(0.85803714 0 0.0003948212)
(0.85732434 0 0.00039444371)
(0.85661186 0 0.00039406642)
(0.8558997 0 0.00039368934)
(0.85518787 0 0.00039331246)
(0.85447635 0 0.00039293579)
(0.85376515 0 0.00039255932)
(0.85305427 0 0.00039218305)
(0.85234371 0 0.00039180698)
(0.85163347 0 0.00039143112)
(0.85092355 0 0.00039105546)
(0.85021395 0 0.00039068001)
(0.84950467 0 0.00039030476)
(0.8487957 0 0.00038992971)
(0.84808706 0 0.00038955487)
(0.84737874 0 0.00038918022)
(0.84667073 0 0.00038880579)
(0.84596305 0 0.00038843154)
(0.84525568 0 0.00038805754)
(0.84454863 0 0.00038768365)
(0.84384191 0 0.00038731015)
(0.8431355 0 0.00038693648)
(0.84242941 0 0.00038656372)
(0.84172363 0 0.00038618983)
(0.84101819 0 0.00038581867)
(0.84031304 0 0.00038544292)
(0.83960825 0 0.00038507646)
(0.83890371 0 0.000384693)
(0.83819962 0 0.0003843423)
(0.8374956 0 0.00038393019)
(0.83679236 0 0.00038363485)
(0.83608857 0 0.00038311916)
(0.83538675 0 0.00038302099)
(0.83468211 0 0.00038213381)
(0.83398373 0 0.00038274079)
(0.83327442 0 0.00038052772)
(0.8325867 0 0.00038367657)
(0.83185895 0 0.00037680481)
(0.83120736 0 0.0003894955)
(0.83041036 0 0.00036698805)
(0.82988181 0 0.00042139647)
(0.82880646 0 0.00031318791)
(0.84894746 0 0.13478169)
(0.85784504 0 0.032385702)
(0.78404491 0 0.019466898)
(0.80155818 0 0.0008856074)
(0.78621803 0 0.0028369333)
(0.7920543 0 -0.00011815795)
(0.78773265 0 0.0009705995)
(0.78896338 0 0.00029610782)
(0.78732836 0 0.00062704372)
(0.78720861 0 0.00044799573)
(0.78629588 0 0.00054028348)
(0.78580039 0 0.00049093183)
(0.78508632 0 0.00051607593)
(0.78448748 0 0.00050214717)
(0.78382856 0 0.00050873589)
(0.78320162 0 0.00050455461)
(0.78255832 0 0.0005060285)
(0.78192404 0 0.00050453343)
(0.78128545 0 0.00050459779)
(0.78064956 0 0.00050384359)
(0.78001267 0 0.00050351968)
(0.77937674 0 0.00050297014)
(0.77874074 0 0.0005025395)
(0.7781052 0 0.00050204678)
(0.77746985 0 0.00050158706)
(0.77683483 0 0.00050111038)
(0.77620007 0 0.00050064299)
(0.7755656 0 0.0005001711)
(0.77493141 0 0.00049970195)
(0.7742975 0 0.00049923174)
(0.77366387 0 0.00049876247)
(0.77303052 0 0.00049829309)
(0.77239745 0 0.00049782414)
(0.77176466 0 0.00049735535)
(0.77113216 0 0.00049688685)
(0.77049993 0 0.00049641858)
(0.76986799 0 0.00049595057)
(0.76923633 0 0.0004954828)
(0.76860495 0 0.00049501529)
(0.76797385 0 0.00049454802)
(0.76734303 0 0.000494081)
(0.76671249 0 0.00049361423)
(0.76608223 0 0.00049314771)
(0.76545226 0 0.00049268143)
(0.76482256 0 0.00049221541)
(0.76419314 0 0.00049174963)
(0.76356401 0 0.0004912841)
(0.76293516 0 0.00049081882)
(0.76230658 0 0.00049035379)
(0.76167829 0 0.00048988901)
(0.76105028 0 0.00048942447)
(0.76042254 0 0.00048896019)
(0.75979509 0 0.00048849615)
(0.75916792 0 0.00048803236)
(0.75854103 0 0.00048756882)
(0.75791442 0 0.00048710552)
(0.75728809 0 0.00048664248)
(0.75666204 0 0.00048617968)
(0.75603627 0 0.00048571713)
(0.75541078 0 0.00048525482)
(0.75478557 0 0.00048479277)
(0.75416064 0 0.00048433096)
(0.75353599 0 0.0004838694)
(0.75291162 0 0.00048340809)
(0.75228753 0 0.00048294703)
(0.75166372 0 0.00048248621)
(0.75104019 0 0.00048202565)
(0.75041694 0 0.00048156532)
(0.74979397 0 0.00048110525)
(0.74917128 0 0.00048064543)
(0.74854886 0 0.00048018585)
(0.74792673 0 0.00047972652)
(0.74730488 0 0.00047926744)
(0.74668331 0 0.00047880859)
(0.74606202 0 0.00047835002)
(0.745441 0 0.00047789165)
(0.74482027 0 0.0004774336)
(0.74419981 0 0.00047697567)
(0.74357964 0 0.00047651823)
(0.74295974 0 0.00047606059)
(0.74234013 0 0.00047560402)
(0.74172079 0 0.00047514613)
(0.74110174 0 0.00047469147)
(0.74048295 0 0.00047423142)
(0.73986447 0 0.00047378228)
(0.73924621 0 0.00047331321)
(0.73862834 0 0.00047288256)
(0.73801054 0 0.00047237993)
(0.73739343 0 0.0004720142)
(0.7367758 0 0.00047139017)
(0.73615996 0 0.00047125556)
(0.73554156 0 0.00047019609)
(0.73492879 0 0.00047088807)
(0.73430618 0 0.00046827444)
(0.73370298 0 0.00047194567)
(0.73306376 0 0.00046387121)
(0.73249309 0 0.00047871278)
(0.73179178 0 0.00045233598)
(0.73133168 0 0.00051569913)
(0.73038555 0 0.00038979971)
(0.70264751 0 0.15207555)
(0.71646072 0 0.035956313)
(0.65606013 0 0.021672161)
(0.67167322 0 0.00099730899)
(0.65861757 0 0.0032132541)
(0.66368262 0 -9.893756e-05)
(0.65998588 0 0.0011243503)
(0.66106423 0 0.00036702989)
(0.6596752 0 0.00073863344)
(0.65959025 0 0.00053754248)
(0.65882274 0 0.00064114762)
(0.65841432 0 0.00058569869)
(0.65781778 0 0.00061390521)
(0.6573204 0 0.00059823468)
(0.65677129 0 0.00060560444)
(0.65624972 0 0.00060087993)
(0.65571404 0 0.00060250599)
(0.65518612 0 0.00060079801)
(0.65465448 0 0.00060084124)
(0.65412516 0 0.00059996527)
(0.65359497 0 0.0005995725)
(0.6530656 0 0.00059892638)
(0.65253615 0 0.00059841379)
(0.6520071 0 0.00059783151)
(0.6514782 0 0.00059728628)
(0.65094957 0 0.00059672203)
(0.65042116 0 0.00059616823)
(0.64989299 0 0.00059560938)
(0.64936505 0 0.00059505363)
(0.64883734 0 0.0005944967)
(0.64830987 0 0.00059394083)
(0.64778263 0 0.00059338486)
(0.64725562 0 0.00059282939)
(0.64672885 0 0.0005922741)
(0.64620231 0 0.00059171916)
(0.645676 0 0.00059116448)
(0.64514993 0 0.00059061011)
(0.64462409 0 0.00059005603)
(0.64409848 0 0.00058950224)
(0.64357311 0 0.00058894874)
(0.64304797 0 0.00058839554)
(0.64252306 0 0.00058784263)
(0.64199838 0 0.00058729001)
(0.64147394 0 0.00058673768)
(0.64094973 0 0.00058618565)
(0.64042575 0 0.00058563391)
(0.63990201 0 0.00058508246)
(0.6393785 0 0.0005845313)
(0.63885522 0 0.00058398044)
(0.63833217 0 0.00058342986)
(0.63780936 0 0.00058287958)
(0.63728678 0 0.00058232959)
(0.63676443 0 0.00058177989)
(0.63624231 0 0.00058123049)
(0.63572043 0 0.00058068137)
(0.63519878 0 0.00058013255)
(0.63467736 0 0.00057958402)
(0.63415618 0 0.00057903578)
(0.63363522 0 0.00057848783)
(0.6331145 0 0.00057794018)
(0.63259402 0 0.00057739281)
(0.63207376 0 0.00057684574)
(0.63155374 0 0.00057629896)
(0.63103394 0 0.00057575247)
(0.63051438 0 0.00057520627)
(0.62999506 0 0.00057466036)
(0.62947596 0 0.00057411474)
(0.6289571 0 0.00057356942)
(0.62843847 0 0.00057302439)
(0.62792007 0 0.00057247964)
(0.6274019 0 0.00057193519)
(0.62688397 0 0.00057139103)
(0.62636627 0 0.00057084716)
(0.6258488 0 0.00057030358)
(0.62533156 0 0.0005697603)
(0.62481455 0 0.00056921728)
(0.62429778 0 0.00056867462)
(0.62378123 0 0.00056813211)
(0.62326492 0 0.00056759016)
(0.62274884 0 0.000567048)
(0.62223299 0 0.00056650706)
(0.62171738 0 0.00056596465)
(0.621202 0 0.00056542588)
(0.62068683 0 0.00056488107)
(0.62017193 0 0.00056434852)
(0.61965721 0 0.00056379361)
(0.61914281 0 0.00056328185)
(0.61862846 0 0.00056268926)
(0.6181147 0 0.00056225046)
(0.61760049 0 0.00056152153)
(0.6170878 0 0.00056134239)
(0.61657291 0 0.00056012434)
(0.61606285 0 0.00056087374)
(0.61554431 0 0.00055790987)
(0.61504247 0 0.0005620056)
(0.61450964 0 0.00055290745)
(0.61403576 0 0.00056953351)
(0.61344977 0 0.0005399069)
(0.6130708 0 0.0006105527)
(0.61228007 0 0.0004703663)
(0.53579877 0 0.16531136)
(0.55258758 0 0.038581483)
(0.50716688 0 0.023301214)
(0.52011387 0 0.0011085741)
(0.50980629 0 0.0035220587)
(0.51389361 0 -5.7326544e-05)
(0.51096093 0 0.0012662034)
(0.51184199 0 0.00044684761)
(0.51075 0 0.00084881145)
(0.51070034 0 0.00063121024)
(0.51010503 0 0.00074325382)
(0.50979675 0 0.00068322271)
(0.50933807 0 0.00071369653)
(0.50895866 0 0.0006967009)
(0.5085379 0 0.00070463212)
(0.50813912 0 0.00069947878)
(0.50772907 0 0.00070119605)
(0.50732521 0 0.00069930629)
(0.50691836 0 0.00069931115)
(0.50651336 0 0.00069832156)
(0.50610766 0 0.00069785477)
(0.5057026 0 0.00069711389)
(0.50529747 0 0.0006965175)
(0.50489265 0 0.00069584572)
(0.50448794 0 0.00069521406)
(0.50408344 0 0.00069456184)
(0.5036791 0 0.00069392093)
(0.50327495 0 0.00069327459)
(0.50287097 0 0.00069263162)
(0.50246717 0 0.00069198739)
(0.50206354 0 0.00069134433)
(0.5016601 0 0.00069070117)
(0.50125683 0 0.00069005858)
(0.50085374 0 0.0006894162)
(0.50045082 0 0.00068877422)
(0.50004808 0 0.00068813254)
(0.49964553 0 0.00068749122)
(0.49924314 0 0.00068685022)
(0.49884094 0 0.00068620956)
(0.49843891 0 0.00068556924)
(0.49803706 0 0.00068492925)
(0.49763538 0 0.0006842896)
(0.49723389 0 0.00068365029)
(0.49683257 0 0.0006830113)
(0.49643143 0 0.00068237266)
(0.49603046 0 0.00068173435)
(0.49562967 0 0.00068109637)
(0.49522906 0 0.00068045873)
(0.49482863 0 0.00067982143)
(0.49442837 0 0.00067918446)
(0.49402829 0 0.00067854782)
(0.49362838 0 0.00067791152)
(0.49322866 0 0.00067727555)
(0.49282911 0 0.00067663992)
(0.49242973 0 0.00067600463)
(0.49203054 0 0.00067536966)
(0.49163152 0 0.00067473504)
(0.49123267 0 0.00067410075)
(0.49083401 0 0.00067346679)
(0.49043552 0 0.00067283316)
(0.4900372 0 0.00067219988)
(0.48963907 0 0.00067156692)
(0.48924111 0 0.0006709343)
(0.48884333 0 0.00067030201)
(0.48844572 0 0.00066967006)
(0.48804829 0 0.00066903844)
(0.48765104 0 0.00066840716)
(0.48725396 0 0.00066777621)
(0.48685706 0 0.0006671456)
(0.48646033 0 0.00066651531)
(0.48606379 0 0.00066588537)
(0.48566741 0 0.00066525575)
(0.48527122 0 0.00066462647)
(0.4848752 0 0.00066399752)
(0.48447936 0 0.00066336892)
(0.48408369 0 0.00066274061)
(0.4836882 0 0.00066211272)
(0.48329289 0 0.00066148501)
(0.48289775 0 0.00066085792)
(0.48250279 0 0.00066023062)
(0.48210801 0 0.00065960467)
(0.4817134 0 0.00065897714)
(0.48131897 0 0.00065835356)
(0.4809247 0 0.00065772347)
(0.48053064 0 0.00065710667)
(0.4801367 0 0.00065646568)
(0.47974303 0 0.00065587142)
(0.47934938 0 0.00065518969)
(0.47895619 0 0.00065467445)
(0.47856263 0 0.00065384518)
(0.47817028 0 0.00065361102)
(0.47777616 0 0.00065225235)
(0.47738589 0 0.00065302331)
(0.47698884 0 0.00064977497)
(0.47660512 0 0.00065416785)
(0.47619664 0 0.00064428008)
(0.47583526 0 0.00066221982)
(0.4753845 0 0.00063015146)
(0.47509874 0 0.00070604268)
(0.47448982 0 0.00055567513)
(0.35052839 0 0.17298281)
(0.36673925 0 0.040326616)
(0.33754662 0 0.024327212)
(0.3468529 0 0.001245219)
(0.33981248 0 0.0037507954)
(0.34267484 0 1.3881838e-05)
(0.34066478 0 0.0013930126)
(0.34129309 0 0.00053792455)
(0.34055466 0 0.00095707436)
(0.3405379 0 0.00073000629)
(0.34014327 0 0.00084681829)
(0.33994739 0 0.00078413528)
(0.33964736 0 0.00081586328)
(0.3394022 0 0.00079807339)
(0.3391284 0 0.00080628633)
(0.33886982 0 0.00080084989)
(0.33860341 0 0.00080258072)
(0.33834129 0 0.0008005488)
(0.33807709 0 0.00080049337)
(0.33781416 0 0.00079940054)
(0.33755073 0 0.00079885313)
(0.33728774 0 0.00079801982)
(0.33702469 0 0.00079733727)
(0.33676185 0 0.0007965761)
(0.33649907 0 0.00079585681)
(0.33623643 0 0.00079511609)
(0.33597389 0 0.00079438721)
(0.33571147 0 0.00079365268)
(0.33544916 0 0.0007929217)
(0.33518697 0 0.00079218944)
(0.33492488 0 0.00079145842)
(0.33466292 0 0.00079072733)
(0.33440106 0 0.00078999685)
(0.33413932 0 0.00078926663)
(0.33387769 0 0.00078853685)
(0.33361618 0 0.00078780741)
(0.33335478 0 0.00078707837)
(0.33309349 0 0.0007863497)
(0.33283232 0 0.00078562141)
(0.33257126 0 0.0007848935)
(0.33231031 0 0.00078416596)
(0.33204948 0 0.0007834388)
(0.33178876 0 0.00078271202)
(0.33152815 0 0.00078198562)
(0.33126765 0 0.0007812596)
(0.33100727 0 0.00078053395)
(0.330747 0 0.00077980868)
(0.33048685 0 0.00077908378)
(0.33022681 0 0.00077835927)
(0.32996688 0 0.00077763513)
(0.32970707 0 0.00077691137)
(0.32944736 0 0.00077618798)
(0.32918778 0 0.00077546497)
(0.3289283 0 0.00077474234)
(0.32866894 0 0.00077402009)
(0.32840969 0 0.00077329821)
(0.32815055 0 0.00077257671)
(0.32789153 0 0.00077185559)
(0.32763262 0 0.00077113484)
(0.32737382 0 0.00077041447)
(0.32711514 0 0.00076969447)
(0.32685657 0 0.00076897485)
(0.32659811 0 0.00076825561)
(0.32633976 0 0.00076753674)
(0.32608153 0 0.00076681826)
(0.32582341 0 0.00076610014)
(0.32556541 0 0.0007653824)
(0.32530751 0 0.00076466504)
(0.32504973 0 0.00076394806)
(0.32479206 0 0.00076323145)
(0.32453451 0 0.00076251521)
(0.32427707 0 0.00076179935)
(0.32401974 0 0.00076108388)
(0.32376252 0 0.00076036876)
(0.32350542 0 0.00075965405)
(0.32324843 0 0.00075893966)
(0.32299155 0 0.00075822574)
(0.32273478 0 0.00075751203)
(0.32247813 0 0.00075679899)
(0.32222159 0 0.00075608577)
(0.32196516 0 0.00075537398)
(0.32170885 0 0.00075466058)
(0.32145265 0 0.00075395132)
(0.32119656 0 0.00075323529)
(0.32094059 0 0.00075253316)
(0.32068471 0 0.00075180581)
(0.32042899 0 0.00075112728)
(0.32017328 0 0.00075035744)
(0.31991789 0 0.00074976146)
(0.31966223 0 0.00074883763)
(0.31940739 0 0.0007485352)
(0.31915132 0 0.00074705865)
(0.31889791 0 0.00074780576)
(0.3186398 0 0.00074435626)
(0.3183909 0 0.00074888529)
(0.31812486 0 0.00073850488)
(0.31789142 0 0.00075717021)
(0.31759623 0 0.00072368271)
(0.317415 0 0.00080241267)
(0.31701455 0 0.00064674213)
(0.14959063 0 0.17381267)
(0.15954803 0 0.041300743)
(0.14739572 0 0.024826149)
(0.15184796 0 0.0014120784)
(0.14867045 0 0.0039069352)
(0.1500104 0 0.00011427508)
(0.1491062 0 0.0015070757)
(0.14941299 0 0.00064087494)
(0.14909156 0 0.0010648673)
(0.14910167 0 0.00083492906)
(0.14893813 0 0.00095307093)
(0.14886591 0 0.00088954319)
(0.14874581 0 0.00092157552)
(0.14865092 0 0.00090348766)
(0.14854286 0 0.00091171941)
(0.14844178 0 0.00090613545)
(0.1483371 0 0.00090780625)
(0.14823437 0 0.00090566838)
(0.14813068 0 0.00090553119)
(0.14802755 0 0.00090434396)
(0.1479242 0 0.00090370885)
(0.14782103 0 0.00090278439)
(0.14771782 0 0.00090201256)
(0.1476147 0 0.00090116119)
(0.14751159 0 0.00090035225)
(0.14740854 0 0.00089952165)
(0.14730553 0 0.00089870308)
(0.14720256 0 0.00089787883)
(0.14709963 0 0.0008970582)
(0.14699674 0 0.00089623631)
(0.1468939 0 0.00089541573)
(0.14679109 0 0.0008945951)
(0.14668833 0 0.00089377513)
(0.14658561 0 0.00089295545)
(0.14648293 0 0.00089213627)
(0.14638029 0 0.00089131746)
(0.14627769 0 0.0008904991)
(0.14617514 0 0.00088968114)
(0.14607262 0 0.00088886361)
(0.14597015 0 0.0008880465)
(0.14586772 0 0.0008872298)
(0.14576533 0 0.00088641353)
(0.14566298 0 0.00088559767)
(0.14556068 0 0.00088478223)
(0.14545841 0 0.00088396722)
(0.14535619 0 0.00088315262)
(0.14525401 0 0.00088233844)
(0.14515187 0 0.00088152468)
(0.14504977 0 0.00088071133)
(0.14494771 0 0.00087989841)
(0.14484569 0 0.0008790859)
(0.14474372 0 0.00087827382)
(0.14464179 0 0.00087746215)
(0.1445399 0 0.0008766509)
(0.14443805 0 0.00087584007)
(0.14433624 0 0.00087502965)
(0.14423447 0 0.00087421966)
(0.14413274 0 0.00087341008)
(0.14403106 0 0.00087260092)
(0.14392942 0 0.00087179218)
(0.14382781 0 0.00087098386)
(0.14372625 0 0.00087017595)
(0.14362474 0 0.00086936846)
(0.14352326 0 0.00086856139)
(0.14342182 0 0.00086775474)
(0.14332043 0 0.00086694851)
(0.14321907 0 0.00086614269)
(0.14311776 0 0.00086533729)
(0.14301649 0 0.00086453231)
(0.14291526 0 0.00086372774)
(0.14281407 0 0.0008629236)
(0.14271293 0 0.00086211986)
(0.14261182 0 0.00086131655)
(0.14251076 0 0.00086051365)
(0.14240974 0 0.00085971118)
(0.14230876 0 0.00085890909)
(0.14220782 0 0.0008581075)
(0.14210692 0 0.00085730617)
(0.14200606 0 0.00085650555)
(0.14190524 0 0.00085570479)
(0.14180447 0 0.00085490551)
(0.14170374 0 0.00085410462)
(0.14160305 0 0.00085330798)
(0.14150239 0 0.00085250451)
(0.14140179 0 0.00085171517)
(0.14130121 0 0.0008509003)
(0.1412007 0 0.00085013495)
(0.14110018 0 0.00084927708)
(0.1409998 0 0.00084859548)
(0.14089928 0 0.00084758159)
(0.14079913 0 0.00084719762)
(0.14069841 0 0.00084562353)
(0.1405989 0 0.00084630357)
(0.1404972 0 0.00084272969)
(0.14039976 0 0.00084724396)
(0.14029438 0 0.0008366468)
(0.14020406 0 0.0008554912)
(0.14008528 0 0.00082153156)
(0.14001896 0 0.00090093197)
(0.13985396 0 0.00074454708)
)
;

boundaryField
{
    inlet
    {
        type            fixedProfile;
        profile         polynomial
        
2
(
((1.5 0 0) (0 0 0))
((-1.5 0 0) (2 0 0))
)
;
        direction       (0 0 1);
        origin          0;
        value           nonuniform List<vector> 10((1.49625 0 0) (1.46625 0 0) (1.40625 0 0) (1.31625 0 0) (1.19625 0 0) (1.04625 0 0) (0.86625 0 0) (0.65625 0 0) (0.41625 0 0) (0.14625 0 0));
    }
    outlet
    {
        type            pressureInletOutletVelocity;
        value           nonuniform List<vector> 10((1.0256473 0 3.2870855e-05) (1.0059633 0 9.9783438e-05) (0.96659521 0 0.00016887398) (0.90754297 0 0.00023980412) (0.82880646 0 0.00031318791) (0.73038555 0 0.00038979971) (0.61228007 0 0.0004703663) (0.47448982 0 0.00055567513) (0.31701455 0 0.00064674213) (0.13985396 0 0.00074454708));
    }
    walls
    {