/*--------------------------------*- C++ -*----------------------------------*\
  =========                 |
  \\      /  F ield         | OpenFOAM: The Open Source CFD Toolbox
   \\    /   O peration     | Website:  https://openfoam.org
    \\  /    A nd           | Version:  6
     \\/     M anipulation  |
\*---------------------------------------------------------------------------*/
FoamFile
{
    version     2.0;
    format      ascii;
    class       volScalarField;
    location    "10000";
    object      p;
}
// * * * * * * * * * * * * * * * * * * * * * * * * * * * * * * * * * * * * * //

dimensions      [0 2 -2 0 0 0 0];

internalField   nonuniform List<scalar> 
2250
(
19597059
19377645
19277066
19129026
19010599
18875316
18749838
18618456
18490504
18360473
18231639
18102063
17972896
17843455
17714145
17584727
17455342
17325907
17196471
17067004
16937525
16808022
16678502
16548961
16419402
16289823
16160224
16030606
15900968
15771311
15641634
15511937
15382221
15252485
15122730
14992955
14863161
14733346
14603512
14473659
14343785
14213892
14083979
13954047
13824094
13694122
13564130
13434118
13304086
13174035
13043964
12913872
12783761
12653630
12523479
12393308
12263117
12132906
12002675
11872425
11742154
11611863
11481552
11351221
11220869
11090498
10960107
10829695
10699264
10568812
10438340
10307848
10177335
10046803
9916250.1
9785677
9655083.6
9524470
9393836.1
9263181.8
9132507.3
9001812.3
8871097.1
8740361.4
8609605.3
8478828.9
8348032
8217214.6
8086376.8
7955518.6
7824639.8
7693740.6
7562820.8
7431880.5
7300919.6
7169938.1
7038936.1
6907913.5
6776870.3
6645806.4
6514721.9
6383616.7
6252490.8
6121344.2
5990177
5858989
5727780.2
5596550.7
5465300.4
5334029.3
5202737.4
5071424.7
4940091.2
4808736.7
4677361.5
4545965.3
4414548.2
4283110.2
4151651.2
4020171.3
3888670.4
3757148.6
3625605.7
3494041.8
3362456.9
3230850.9
3099223.8
2967575.7
2835906.5
2704216.1
2572504.6
2440771.9
2309018.1
2177243
2045447
1913629.3
1781791
1649930.5
1518050.3
1386146.2
1254225.1
1122275.4
990316.67
858316.03
726328.39
594261.8
462270.33
330095.44
198175.17
65763.137
19595404
19377757
19276775
19129108
19010541
18875349
18749820
18618467
18490498
18360477
18231637
18102064
17972895
17843455
17714145
17584727
17455343
17325907
17196471
17067005
16937525
16808022
16678502
16548962
16419402
16289823
16160224
16030606
15900968
15771311
15641634
15511937
15382221
15252486
15122730
14992955
14863161
14733346
14603512
14473659
14343785
14213892
14083979
13954047
13824094
13694122
13564130
13434118
13304087
13174035
13043964
12913873
12783761
12653630
12523479
12393308
12263117
12132907
12002676
11872425
11742154
11611863
11481552
11351221
11220870
11090498
10960107
10829696
10699264
10568812
10438340
10307848
10177336
10046803
9916250.3
9785677.2
9655083.9
9524470.2
9393836.3
9263182.1
9132507.5
9001812.6
8871097.3
8740361.6
8609605.6
8478829.1
8348032.2
8217214.9
8086377.1
7955518.8
7824640
7693740.8
7562821
7431880.7
7300919.8
7169938.4
7038936.3
6907913.7
6776870.5
6645806.6
6514722.1
6383616.9
6252491
6121344.5
5990177.2
5858989.2
5727780.4
5596550.9
5465300.6
5334029.5
5202737.7
5071424.9
4940091.4
4808737
4677361.7
4545965.5
4414548.4
4283110.4
4151651.4
4020171.5
3888670.7
3757148.8
3625605.9
3494042
3362457.1
3230851.1
3099224.1
2967575.9
2835906.7
2704216.3
2572504.8
2440772.1
2309018.3
2177243.3
2045447.2
1913629.5
1781791.2
1649930.7
1518050.5
1386146.4
1254225.3
1122275.7
990316.84
858316.35
726328.44
594262.3
462270.07
330096.47
198173.75
65765.752
19592795
19377486
19276508
19129136
19010511
18875365
18749812
18618474
18490496
18360480
18231637
18102065
17972895
17843456
17714145
17584728
17455343
17325908
17196471
17067005
16937525
16808023
16678503
16548962
16419403
16289823
16160225
16030606
15900969
15771311
15641634
15511938
15382222
15252486
15122731
14992956
14863161
14733347
14603513
14473659
14343786
14213893
14083980
13954047
13824095
13694123
13564131
13434119
13304087
13174036
13043964
12913873
12783762
12653631
12523480
12393309
12263118
12132907
12002676
11872425
11742154
11611863
11481552
11351221
11220870
11090499
10960107
10829696
10699264
10568813
10438341
10307848
10177336
10046803
9916250.7
9785677.6
9655084.2
9524470.6
9393836.7
9263182.4
9132507.9
9001812.9
8871097.7
8740362
8609605.9
8478829.5
8348032.6
8217215.2
8086377.4
7955519.2
7824640.4
7693741.2
7562821.4
7431881.1
7300920.2
7169938.7
7038936.7
6907914.1
6776870.9
6645807
6514722.5
6383617.3
6252491.4
6121344.8
5990177.6
5858989.6
5727780.8
5596551.3
5465301
5334029.9
5202738
5071425.3
4940091.8
4808737.3
4677362.1
4545965.9
4414548.8
4283110.8
4151651.8
4020171.9
3888671
3757149.2
3625606.3
3494042.4
3362457.5
3230851.5
3099224.4
2967576.3
2835907.1
2704216.7
2572505.2
2440772.5
2309018.7
2177243.6
2045447.6
1913629.9
1781791.6
1649931.1
1518050.9
1386146.8
1254225.7
1122276.1
990317.19
858316.78
726328.75
594262.82
462270.21
330097.25
198173.11
65767.576
19588895
19376983
19276164
19129154
19010482
18875382
18749806
18618479
18490493
18360482
18231636
18102067
17972895
17843457
17714146
17584728
17455343
17325908
17196472
17067005
16937526
16808023
16678503
16548963
16419403
16289824
16160225
16030607
15900969
15771312
15641635
15511938
15382222
15252487
15122731
14992956
14863162
14733347
14603513
14473660
14343786
14213893
14083980
13954048
13824095
13694123
13564131
13434119
13304088
13174036
13043965
12913873
12783762
12653631
12523480
12393309
12263118
12132907
12002677
11872426
11742155
11611864
11481553
11351222
11220871
11090499
10960108
10829697
10699265
10568813
10438341
10307849
10177337
10046804
9916251.2
9785678.2
9655084.8
9524471.2
9393837.3
9263183
9132508.4
9001813.5
8871098.2
8740362.6
8609606.5
8478830
8348033.2
8217215.8
8086378
7955519.8
7824641
7693741.7
7562822
7431881.6
7300920.8
7169939.3
7038937.3
6907914.7
6776871.4
6645807.6
6514723
6383617.9
6252492
6121345.4
5990178.1
5858990.1
5727781.4
5596551.9
5465301.6
5334030.5
5202738.6
5071425.9
4940092.3
4808737.9
4677362.6
4545966.5
4414549.4
4283111.4
4151652.4
4020172.5
3888671.6
3757149.8
3625606.9
3494043
3362458.1
3230852.1
3099225
2967576.9
2835907.6
2704217.3
2572505.8
2440773.1
2309019.3
2177244.2
2045448.1
1913630.5
1781792.2
1649931.7
1518051.4
1386147.4
1254226.3
1122276.7
990317.74
858317.4
726329.25
594263.51
462270.56
330098.2
198172.56
65769.734
19583611
19376335
19275709
19129182
19010442
18875405
18749797
18618488
18490491
18360485
18231636
18102068
17972896
17843458
17714146
17584729
17455344
17325909
17196473
17067006
16937527
16808024
16678504
16548963
16419404
16289824
16160226
16030608
15900970
15771312
15641636
15511939
15382223
15252487
15122732
14992957
14863162
14733348
14603514
14473661
14343787
14213894
14083981
13954049
13824096
13694124
13564132
13434120
13304088
13174037
13043966
12913874
12783763
12653632
12523481
12393310
12263119
12132908
12002677
11872426
11742156
11611865
11481554
11351223
11220871
11090500
10960109
10829697
10699266
10568814
10438342
10307850
10177337
10046805
9916252
9785678.9
9655085.6
9524472
9393838
9263183.8
9132509.2
9001814.3
8871099
8740363.3
8609607.3
8478830.8
8348033.9
8217216.6
8086378.8
7955520.5
7824641.8
7693742.5
7562822.7
7431882.4
7300921.5
7169940.1
7038938.1
6907915.4
6776872.2
6645808.3
6514723.8
6383618.6
6252492.8
6121346.2
5990178.9
5858990.9
5727782.2
5596552.6
5465302.4
5334031.3
5202739.4
5071426.7
4940093.1
4808738.7
4677363.4
4545967.2
4414550.1
4283112.1
4151653.2
4020173.3
3888672.4
3757150.5
3625607.7
3494043.8
3362458.8
3230852.8
3099225.8
2967577.6
2835908.4
2704218
2572506.5
2440773.9
2309020.1
2177245
2045448.9
1913631.3
1781792.9
1649932.5
1518052.2
1386148.1
1254227
1122277.5
990318.48
858318.24
726329.93
594264.46
462271.02
330099.49
198171.82
65772.684
19576917
19375562
19275157
19129222
19010393
18875435
18749785
18618498
18490487
18360489
18231635
18102070
17972896
17843459
17714147
17584730
17455345
17325910
17196474
17067007
16937528
16808025
16678505
16548964
16419405
16289825
16160227
16030609
15900971
15771313
15641637
15511940
15382224
15252488
15122733
14992958
14863163
14733349
14603515
14473662
14343788
14213895
14083982
13954049
13824097
13694125
13564133
13434121
13304089
13174038
13043966
12913875
12783764
12653633
12523482
12393311
12263120
12132909
12002678
11872427
11742157
11611866
11481555
11351224
11220872
11090501
10960110
10829698
10699267
10568815
10438343
10307851
10177338
10046806
9916253
9785679.9
9655086.6
9524472.9
9393839
9263184.8
9132510.2
9001815.3
8871100
8740364.3
8609608.2
8478831.8
8348034.9
8217217.5
8086379.8
7955521.5
7824642.7
7693743.5
7562823.7
7431883.4
7300922.5
7169941.1
7038939
6907916.4
6776873.2
6645809.3
6514724.8
6383619.6
6252493.7
6121347.2
5990179.9
5858991.9
5727783.1
5596553.6
5465303.3
5334032.2
5202740.4
5071427.6
4940094.1
4808739.7
4677364.4
4545968.2
4414551.1
4283113.1
4151654.1
4020174.2
3888673.4
3757151.5
3625608.6
3494044.7
3362459.8
3230853.8
3099226.8
2967578.6
2835909.4
2704219
2572507.5
2440774.8
2309021
2177246
2045449.9
1913632.2
1781793.9
1649933.4
1518053.2
1386149.1
1254228
1122278.5
990319.4
858319.29
726330.76
594265.65
462271.59
330101.11
198170.89
65776.419
19568766
19374677
19274524
19129275
19010337
18875470
18749771
18618510
18490482
18360494
18231634
18102073
17972896
17843461
17714148
17584732
17455346
17325911
17196475
17067008
16937529
16808026
16678506
16548965
16419406
16289827
16160228
16030610
15900972
15771315
15641638
15511941
15382225
15252489
15122734
14992959
14863165
14733350
14603516
14473663
14343789
14213896
14083983
13954051
13824098
13694126
13564134
13434122
13304091
13174039
13043968
12913876
12783765
12653634
12523483
12393312
12263121
12132910
12002679
11872429
11742158
11611867
11481556
11351225
11220874
11090502
10960111
10829699
10699268
10568816
10438344
10307852
10177340
10046807
9916254.1
9785681.1
9655087.7
9524474.1
9393840.2
9263185.9
9132511.3
9001816.4
8871101.1
8740365.5
8609609.4
8478832.9
8348036
8217218.7
8086380.9
7955522.6
7824643.9
7693744.6
7562824.8
7431884.5
7300923.7
7169942.2
7038940.2
6907917.6
6776874.3
6645810.5
6514725.9
6383620.7
6252494.9
6121348.3
5990181
5858993
5727784.3
5596554.8
5465304.5
5334033.4
5202741.5
5071428.8
4940095.2
4808740.8
4677365.5
4545969.4
4414552.3
4283114.3
4151655.3
4020175.4
3888674.5
3757152.7
3625609.8
3494045.9
3362461
3230855
3099227.9
2967579.8
2835910.5
2704220.2
2572508.7
2440776
2309022.2
2177247.1
2045451
1913633.4
1781795.1
1649934.6
1518054.3
1386150.3
1254229.1
1122279.7
990320.51
858320.54
726331.77
594267.07
462272.27
330103.05
198169.83
65780.885
19559087
19373703
19273829
19129344
19010275
18875511
18749756
18618525
18490477
18360500
18231633
18102075
17972897
17843463
17714149
17584733
17455347
17325913
17196476
17067010
16937530
16808027
16678507
16548967
16419407
16289828
16160229
16030611
15900973
15771316
15641639
15511943
15382226
15252491
15122735
14992961
14863166
14733352
14603518
14473664
14343791
14213897
14083985
13954052
13824100
13694127
13564135
13434124
13304092
13174040
13043969
12913878
12783767
12653635
12523484
12393313
12263123
12132912
12002681
11872430
11742159
11611868
11481557
11351226
11220875
11090504
10960112
10829701
10699269
10568817
10438345
10307853
10177341
10046808
9916255.5
9785682.4
9655089.1
9524475.4
9393841.5
9263187.3
9132512.7
9001817.8
8871102.5
8740366.8
8609610.8
8478834.3
8348037.4
8217220.1
8086382.3
7955524
7824645.2
7693746
7562826.2
7431885.9
7300925
7169943.6
7038941.5
6907918.9
6776875.7
6645811.8
6514727.3
6383622.1
6252496.2
6121349.7
5990182.4
5858994.4
5727785.6
5596556.1
5465305.8
5334034.8
5202742.9
5071430.1
4940096.6
4808742.2
4677366.9
4545970.7
4414553.6
4283115.6
4151656.7
4020176.8
3888675.9
3757154
3625611.1
3494047.2
3362462.3
3230856.3
3099229.3
2967581.1
2835911.9
2704221.5
2572510
2440777.3
2309023.6
2177248.5
2045452.4
1913634.8
1781796.4
1649936
1518055.7
1386151.7
1254230.4
1122281.1
990321.81
858322
726332.95
594268.72
462273.09
330105.3
198168.67
65786.058
19547791
19372671
19273091
19129430
19010209
18875559
18749738
18618541
18490471
18360506
18231632
18102079
17972897
17843465
17714150
17584735
17455349
17325914
17196478
17067011
16937532
16808029
16678509
16548968
16419409
16289829
16160231
16030613
15900975
15771317
15641641
15511944
15382228
15252492
15122737
14992962
14863167
14733353
14603519
14473666
14343792
14213899
14083986
13954054
13824101
13694129
13564137
13434125
13304093
13174042
13043971
12913879
12783768
12653637
12523486
12393315
12263124
12132913
12002682
11872431
11742161
11611870
11481559
11351228
11220876
11090505
10960114
10829702
10699271
10568819
10438347
10307855
10177342
10046810
9916257
9785683.9
9655090.6
9524477
9393843
9263188.8
9132514.2
9001819.3
8871104
8740368.4
8609612.3
8478835.8
8348038.9
8217221.6
8086383.8
7955525.5
7824646.8
7693747.5
7562827.7
7431887.4
7300926.6
7169945.1
7038943.1
6907920.5
6776877.2
6645813.4
6514728.8
6383623.6
6252497.8
6121351.2
5990183.9
5858995.9
5727787.2
5596557.7
5465307.4
5334036.3
5202744.4
5071431.7
4940098.1
4808743.7
4677368.4
4545972.3
4414555.2
4283117.2
4151658.2
4020178.3
3888677.4
3757155.6
3625612.7
3494048.8
3362463.9
3230857.9
3099230.8
2967582.7
2835913.4
2704223.1
2572511.6
2440778.9
2309025.1
2177250
2045453.9
1913636.3
1781798
1649937.5
1518057.2
1386153.2
1254232
1122282.7
990323.28
858323.67
726334.3
594270.61
462274.03
330107.85
198167.44
65791.926
19534782
19371618
19272335
19129537
19010141
18875612
18749718
18618559
18490465
18360513
18231630
18102082
17972898
17843467
17714152
17584737
17455350
17325916
17196479
17067013
16937533
16808031
16678511
16548970
16419411
16289831
16160233
16030614
15900977
15771319
15641642
15511946
15382230
15252494
15122739
14992964
14863169
14733355
14603521
14473667
14343794
14213901
14083988
13954055
13824103
13694131
13564139
13434127
13304095
13174044
13043972
12913881
12783770
12653639
12523488
12393317
12263126
12132915
12002684
11872433
11742162
11611871
11481560
11351229
11220878
11090507
10960116
10829704
10699272
10568821
10438349
10307857
10177344
10046812
9916258.8
9785685.7
9655092.3
9524478.7
9393844.8
9263190.5
9132516
9001821
8871105.8
8740370.1
8609614
8478837.6
8348040.7
8217223.3
8086385.5
7955527.3
7824648.5
7693749.3
7562829.5
7431889.2
7300928.3
7169946.9
7038944.8
6907922.2
6776879
6645815.1
6514730.6
6383625.4
6252499.5
6121353
5990185.7
5858997.7
5727788.9
5596559.4
5465309.1
5334038
5202746.2
5071433.4
4940099.9
4808745.5
4677370.2
4545974
4414556.9
4283118.9
4151659.9
4020180
3888679.2
3757157.3
3625614.4
3494050.5
3362465.6
3230859.6
3099232.6
2967584.4
2835915.2
2704224.8
2572513.3
2440780.6
2309026.9
2177251.8
2045455.7
1913638.1
1781799.7
1649939.3
1518058.9
1386155
1254233.7
1122284.4
990324.95
858325.55
726335.82
594272.74
462275.1
330110.71
198166.18
65798.47
19519973
19370587
19271589
19129668
19010071
18875671
18749697
18618579
18490458
18360521
18231629
18102086
17972899
17843470
17714153
17584739
17455352
17325918
17196481
17067015
16937535
16808033
16678513
16548972
16419412
16289833
16160235
16030616
15900978
15771321
15641644
15511948
15382232
15252496
15122741
14992966
14863171
14733357
14603523
14473669
14343796
14213903
14083990
13954057
13824105
13694133
13564141
13434129
13304097
13174046
13043974
12913883
12783772
12653641
12523490
12393319
12263128
12132917
12002686
11872435
11742164
11611873
11481562
11351231
11220880
11090509
10960117
10829706
10699274
10568823
10438351
10307858
10177346
10046813
9916260.7
9785687.6
9655094.3
9524480.6
9393846.7
9263192.5
9132517.9
9001823
8871107.7
8740372
8609616
8478839.5
8348042.6
8217225.3
8086387.5
7955529.2
7824650.4
7693751.2
7562831.4
7431891.1
7300930.2
7169948.8
7038946.7
6907924.1
6776880.9
6645817
6514732.5
6383627.3
6252501.4
6121354.9
5990187.6
5858999.6
5727790.8
5596561.3
5465311
5334040
5202748.1
5071435.4
4940101.8
4808747.4
4677372.1
4545975.9
4414558.8
4283120.8
4151661.9
4020182
3888681.1
3757159.2
3625616.4
3494052.5
3362467.5
3230861.5
3099234.5
2967586.3
2835917.1
2704226.7
2572515.2
2440782.6
2309028.8
2177253.7
2045457.6
1913640
1781801.6
1649941.2
1518060.9
1386156.9
1254235.6
1122286.4
990326.79
858327.63
726337.5
594275.08
462276.29
330113.85
198164.93
65805.659
19503162
19369629
19270883
19129827
19009999
18875736
18749673
18618601
18490450
18360529
18231627
18102090
17972899
17843472
17714155
17584741
17455354
17325920
17196483
17067017
16937537
16808035
16678515
16548974
16419415
16289835
16160237
16030618
15900981
15771323
15641646
15511950
15382234
15252498
15122743
14992968
14863173
14733359
14603525
14473671
14343798
14213905
14083992
13954059
13824107
13694135
13564143
13434131
13304099
13174048
13043976
12913885
12783774
12653643
12523492
12393321
12263130
12132919
12002688
11872437
11742166
11611875
11481564
11351233
11220882
11090511
10960120
10829708
10699276
10568825
10438353
10307861
10177348
10046816
9916262.8
9785689.7
9655096.3
9524482.7
9393848.8
9263194.5
9132520
9001825.1
8871109.8
8740374.1
8609618
8478841.6
8348044.7
8217227.4
8086389.6
7955531.3
7824652.5
7693753.3
7562833.5
7431893.2
7300932.3
7169950.9
7038948.8
6907926.2
6776883
6645819.1
6514734.6
6383629.4
6252503.5
6121357
5990189.7
5859001.7
5727792.9
5596563.4
5465313.1
5334042.1
5202750.2
5071437.5
4940103.9
4808749.5
4677374.2
4545978
4414560.9
4283122.9
4151664
4020184.1
3888683.2
3757161.3
3625618.5
3494054.6
3362469.6
3230863.6
3099236.6
2967588.4
2835919.2
2704228.8
2572517.3
2440784.7
2309030.9
2177255.8
2045459.7
1913642.1
1781803.7
1649943.3
1518063
1386159.1
1254237.7
1122288.6
990328.8
858329.9
726339.34
594277.64
462277.6
330117.28
198163.71
65813.495
19483607
19368809
19270257
19130023
19009928
18875809
18749647
18618625
18490441
18360539
18231626
18102095
17972900
17843476
17714157
17584744
17455356
17325923
17196485
17067019
16937540
16808037
16678517
16548976
16419417
16289838
16160239
16030621
15900983
15771326
15641649
15511952
15382236
15252500
15122745
14992970
14863175
14733361
14603527
14473674
14343800
14213907
14083994
13954062
13824109
13694137
13564145
13434133
13304101
13174050
13043979
12913887
12783776
12653645
12523494
12393323
12263132
12132921
12002690
11872440
11742169
11611878
11481567
11351236
11220884
11090513
10960122
10829710
10699279
10568827
10438355
10307863
10177350
10046818
9916265.1
9785692
9655098.7
9524485
9393851.1
9263196.9
9132522.3
9001827.4
8871112.1
8740376.4
8609620.4
8478843.9
8348047
8217229.7
8086391.9
7955533.6
7824654.9
7693755.6
7562835.8
7431895.5
7300934.6
7169953.2
7038951.2
6907928.5
6776885.3
6645821.4
6514736.9
6383631.7
6252505.9
6121359.3
5990192
5859004
5727795.3
5596565.8
5465315.5
5334044.4
5202752.5
5071439.8
4940106.2
4808751.8
4677376.5
4545980.3
4414563.3
4283125.2
4151666.3
4020186.4
3888685.5
3757163.6
3625620.8
3494056.9
3362472
3230866
3099238.9
2967590.8
2835921.5
2704231.2
2572519.7
2440787
2309033.2
2177258.1
2045462
1913644.4
1781806.1
1649945.6
1518065.3
1386161.4
1254239.9
1122291
990331.02
858332.41
726341.37
594280.48
462279.06
330121.05
198162.57
65822.139
19460159
19368229
19269776
19130267
19009865
18875889
18749621
18618651
18490432
18360549
18231624
18102101
17972902
17843479
17714159
17584747
17455359
17325926
17196488
17067022
16937542
16808040
16678520
16548979
16419420
16289840
16160242
16030623
15900986
15771328
15641651
15511955
15382239
15252503
15122748
14992973
14863178
14733364
14603530
14473676
14343803
14213910
14083997
13954064
13824112
13694140
13564148
13434136
13304104
13174053
13043981
12913890
12783779
12653648
12523497
12393326
12263135
12132924
12002693
11872442
11742171
11611880
11481569
11351238
11220887
11090516
10960125
10829713
10699282
10568830
10438358
10307866
10177353
10046821
9916267.9
9785694.8
9655101.5
9524487.8
9393853.9
9263199.7
9132525.1
9001830.2
8871114.9
8740379.2
8609623.2
8478846.7
8348049.8
8217232.5
8086394.7
7955536.4
7824657.7
7693758.4
7562838.6
7431898.3
7300937.4
7169956
7038954
6907931.3
6776888.1
6645824.2
6514739.7
6383634.5
6252508.7
6121362.1
5990194.8
5859006.8
5727798.1
5596568.6
5465318.3
5334047.2
5202755.3
5071442.6
4940109
4808754.6
4677379.3
4545983.1
4414566.1
4283128
4151669.1
4020189.2
3888688.3
3757166.4
3625623.6
3494059.7
3362474.8
3230868.8
3099241.7
2967593.6
2835924.3
2704234
2572522.5
2440789.8
2309036
2177260.9
2045464.8
1913647.2
1781808.9
1649948.5
1518068.1
1386164.2
1254242.7
1122293.9
990333.71
858335.4
726343.86
594283.83
462280.96
330125.38
198161.87
65831.801
19435724
19368010
19269529
19130528
19009842
18875963
18749604
18618674
18490426
18360559
18231624
18102106
17972904
17843483
17714162
17584751
17455362
17325929
17196491
17067026
16937546
16808043
16678523
16548983
16419423
16289844
16160245
16030627
15900989
15771332
15641655
15511958
15382242
15252507
15122751
14992976
14863182
14733367
14603533
14473680
14343806
14213913
14084000
13954068
13824115
13694143
13564151
13434139
13304108
13174056
13043985
12913893
12783782
12653651
12523500
12393329
12263138
12132927
12002697
11872446
11742175
11611884
11481573
11351242
11220891
11090519
10960128
10829717
10699285
10568833
10438361
10307869
10177357
10046824
9916271.3
9785698.2
9655104.8
9524491.2
9393857.3
9263203
9132528.5
9001833.5
8871118.3
8740382.6
8609626.5
8478850.1
8348053.2
8217235.8
8086398.1
7955539.8
7824661
7693761.8
7562842
7431901.7
7300940.8
7169959.4
7038957.3
6907934.7
6776891.5
6645827.6
6514743.1
6383637.9
6252512
6121365.5
5990198.2
5859010.2
5727801.4
5596571.9
5465321.6
5334050.6
5202758.7
5071446
4940112.4
4808758
4677382.7
4545986.5
4414569.4
4283131.4
4151672.5
4020192.6
3888691.7
3757169.8
3625627
3494063.1
3362478.1
3230872.2
3099245.1
2967597
2835927.7
2704237.3
2572525.9
2440793.2
2309039.4
2177264.3
2045468.2
1913650.6
1781812.2
1649951.8
1518071.4
1386167.6
1254246.1
1122297.3
990337.01
858338.94
726346.99
594287.63
462283.63
330129.97
198162.41
65841.234
)
;

boundaryField
{
    inlet
    {
        type            fixedFluxPressure;
        gradient        uniform 0;
        value           nonuniform List<scalar> 
15
(
19597059
19595404
19592795
19588895
19583611
19576917
19568766
19559087
19547791
19534782
19519973
19503162
19483607
19460159
19435724
)
;
    }
    outlet
    {
        type            totalPressure;
        rho             rho;
        psi             none;
        gamma           1;
        p0              uniform 0;
        value           uniform 0;
    }
    walls
    {
        type            fixedFluxPressure;
        gradient        uniform 0;
        value           nonuniform List<scalar> 
150
(
19435724
19368010
19269529
19130528
19009842
18875963
18749604
18618674
18490426
18360559
18231624
18102106
17972904
17843483
17714162
17584751
17455362
17325929
17196491
17067026
16937546
16808043
16678523
16548983
16419423
16289844
16160245
16030627
15900989
15771332
15641655
15511958
15382242
15252507
15122751
14992976
14863182
14733367
14603533
14473680
14343806
14213913
14084000
13954068
13824115
13694143
13564151
13434139
13304108
13174056
13043985
12913893
12783782
12653651
12523500
12393329
12263138
12132927
12002697
11872446
11742175
11611884
11481573
11351242
11220891
11090519
10960128
10829717
10699285
10568833
10438361
10307869
10177357
10046824
9916271.3
9785698.2
9655104.8
9524491.2
9393857.3
9263203
9132528.5
9001833.5
8871118.3
8740382.6
8609626.5
8478850.1
8348053.2
8217235.8
8086398.1
7955539.8
7824661
7693761.8
7562842
7431901.7
7300940.8
7169959.4
7038957.3
6907934.7
6776891.5
6645827.6
6514743.1
6383637.9
6252512
6121365.5
5990198.2
5859010.2
5727801.4
5596571.9
5465321.6
5334050.6
5202758.7
5071446
4940112.4
4808758
4677382.7
4545986.5
4414569.4
4283131.4
4151672.5
4020192.6
3888691.7
3757169.8
3625627
3494063.1
3362478.1
3230872.2
3099245.1
2967597
2835927.7
2704237.3
2572525.9
2440793.2
2309039.4
2177264.3
2045468.2
1913650.6
1781812.2
1649951.8
1518071.4
1386167.6
1254246.1
1122297.3
990337.01
858338.94
726346.99
594287.63
462283.63
330129.97
198162.41
65841.234
)
;
    }
    centreline
    {
        type            symmetryPlane;
    }
    frontAndBack
    {
        type            empty;
    }
}


// ************************************************************************* //
