/*--------------------------------*- C++ -*----------------------------------*\
  =========                 |
  \\      /  F ield         | OpenFOAM: The Open Source CFD Toolbox
   \\    /   O peration     | Website:  https://openfoam.org
    \\  /    A nd           | Version:  6
     \\/     M anipulation  |
\*---------------------------------------------------------------------------*/
FoamFile
{
    version     2.0;
    format      ascii;
    class       volVectorField;
    location    "10000";
    object      grad(p);
}
// * * * * * * * * * * * * * * * * * * * * * * * * * * * * * * * * * * * * * //

dimensions      [0 1 -2 0 0 0 0];

internalField   nonuniform List<vector> 
6250
(
(-198863.21 1.3387824e-12 -12023.349)
(-282137.72 1.327527e-12 -382.63763)
(-190532.21 1.322947e-12 -3348.7492)
(-191747.77 0 68.355499)
(-178000.65 0 -533.27963)
(-181345.38 1.3071637e-12 150.44232)
(-179367.25 0 -82.075879)
(-181112.63 0 82.092319)
(-180647.4 0 -27.369589)
(-181357.55 0 27.375073)
(-181161.21 1.2822661e-12 -13.69028)
(-181440.02 0 13.693024)
(-181353.73 0 0)
(-181471.26 0 13.698516)
(-181441.24 -1.2621559e-12 -13.701264)
(-181501.25 0 0)
(-181498.75 0 0)
(-181536.25 0 0)
(-181547.5 0 0)
(-181575 0 13.715019)
(-181591.25 0 0)
(-181615 0 0)
(-181633.75 1.221815e-12 0)
(-181656.25 -1.2167606e-12 0)
(-181677.5 0 0)
(-181698.75 0 0)
(-181718.75 0 0)
(-181740 1.1965168e-12 0)
(-181761.25 0 0)
(-181782.5 0 0)
(-181803.75 0 0)
(-181825 0 0)
(-181846.25 0 0)
(-181867.5 0 0)
(-181887.5 0 0)
(-181908.75 0 0)
(-181931.25 0 0)
(-181952.5 1.1457213e-12 0)
(-181972.5 0 0)
(-181993.75 0 0)
(-182016.25 1.1304307e-12 0)
(-182036.25 0 13.77587)
(-182057.5 1.1202235e-12 0)
(-182080 0 0)
(-182100 1.1100056e-12 13.78421)
(-182121.25 1.1048926e-12 0)
(-182142.5 0 0)
(-182163.75 -1.0946586e-12 0)
(-182185 0 0)
(-182206.25 1.0844139e-12 0)
(-182228.75 0 0)
(-182248.75 0 13.803708)
(-182270 1.0690265e-12 0)
(-182292.5 0 0)
(-182312.5 0 0)
(-182333.75 1.0536148e-12 0)
(-182356.25 0 0)
(-182377.5 -1.0433268e-12 0)
(-182398.75 0 0)
(-182420 1.0330279e-12 0)
(-182441.25 1.0278745e-12 0)
(-182462.5 0 0)
(-182483.75 1.0175594e-12 0)
(-182506.25 0 0)
(-182527.5 0 0)
(-182547.5 1.0020662e-12 0)
(-182568.75 -9.9689649e-13 0)
(-182591.25 9.9172396e-13 0)
(-182613.75 0 0)
(-182635 0 0)
(-182655 9.7618991e-13 0)
(-182676.25 0 0)
(-182698.75 9.6582029e-13 0)
(-182720 0 0)
(-182741.25 0 0)
(-182763.75 -9.5024524e-13 0)
(-182785 0 0)
(-182806.25 0 0)
(-182827.5 0 0)
(-182848.75 0 0)
(-182871.25 0 0)
(-182892.5 0 0)
(-182913.75 -9.1380729e-13 0)
(-182936.25 0 0)
(-182957.5 0 0)
(-182978.75 0 0)
(-183001.25 8.9292494e-13 0)
(-183022.5 -8.8769741e-13 0)
(-183043.75 0 0)
(-183065 0 0)
(-183086.25 0 0)
(-183108.75 0 0)
(-183131.25 -8.6151842e-13 0)
(-183152.5 0 0)
(-183173.75 0 0)
(-183196.25 8.4577765e-13 0)
(-183217.5 0 13.930387)
(-183238.75 -8.3526989e-13 0)
(-183260 0 0)
(-183282.5 0 0)
(-183305 0 0)
(-183326.25 0 0)
(-183347.5 -8.0895168e-13 0)
(-183368.75 0 0)
(-183391.25 7.9840488e-13 0)
(-183413.75 0 0)
(-183435 0 0)
(-183456.25 -7.8256357e-13 0)
(-183478.75 0 0)
(-183501.25 0 0)
(-183522.5 0 0)
(-183543.75 0 0)
(-183566.25 -7.5610521e-13 0)
(-183588.75 0 0)
(-183610 0 0)
(-183631.37 0 1.3984574)
(-183653.75 0 1.3987437)
(-183675.62 -7.2957638e-13 1.3990302)
(-183697.5 0 1.3993168)
(-183719.5 0 1.3996035)
(-183741.5 0 1.3998903)
(-183763.37 0 1.4001773)
(-183785.37 0 0)
(-183807.37 0 1.4007516)
(-183829.37 0 1.4010389)
(-183851.37 0 1.4013263)
(-183873.25 0 1.4016138)
(-183895.37 -6.7630639e-13 1.4019015)
(-183917.37 0 1.4021892)
(-183939.37 0 1.4024771)
(-183961.5 0 1.4027652)
(-183983.5 0 1.4030533)
(-184005.62 -6.4956469e-13 1.4033416)
(-184027.62 0 1.4036299)
(-184049.62 0 1.4039184)
(-184071.87 0 0)
(-184094 0 1.4044957)
(-184116 -6.2275153e-13 1.4047846)
(-184138.12 0 1.4050735)
(-184160.25 0 1.4053627)
(-184182.37 0 0)
(-184204.62 0 0)
(-184226.75 -5.9586664e-13 1.4062306)
(-184248.87 0 1.4065201)
(-184271.12 0 1.4068098)
(-184293.25 0 1.4070996)
(-184315.5 0 0)
(-184337.75 -5.6890976e-13 1.4076795)
(-184359.87 0 1.4079697)
(-184382.12 0 1.40826)
(-184404.37 0 1.4085504)
(-184426.62 0 1.4088409)
(-184448.87 -5.4188064e-13 1.4091315)
(-184471.12 0 1.4094223)
(-184493.37 0 1.4097132)
(-184515.62 0 1.4100041)
(-184538 0 0)
(-184560.37 -5.1477902e-13 1.4105865)
(-184582.62 0 1.4108778)
(-184604.87 0 1.4111693)
(-184627.25 -4.9848314e-13 1.4114609)
(-184649.62 0 1.4117526)
(-184672 -4.8760464e-13 1.4120445)
(-184694.37 0 1.4123364)
(-184716.75 -4.7671445e-13 1.4126285)
(-184739.12 -4.7126496e-13 1.4129207)
(-184761.37 0 1.413213)
(-184783.87 -4.6035722e-13 0)
(-184806.37 -4.5489895e-13 1.413798)
(-184828.75 -4.4943774e-13 1.4140907)
(-184851.12 -4.439736e-13 1.4143835)
(-184873.62 0 1.4146764)
(-184896.12 -4.3303651e-13 1.4149694)
(-184918.5 0 1.4152626)
(-184941 -4.2208764e-13 1.4155559)
(-184963.5 -4.1660879e-13 1.4158493)
(-184985.87 0 1.4161428)
(-185008.37 -4.0564224e-13 0)
(-185031 4.0015454e-13 0)
(-185053.5 -3.9466388e-13 0)
(-185076.12 -3.8917027e-13 0)
(-185098.62 0 1.4176123)
(-185121.12 -3.7817416e-13 1.4179066)
(-185143.75 0 1.418201)
(-185166.25 -3.6716619e-13 1.4184955)
(-185188.87 -3.6165776e-13 1.4187901)
(-185211.5 0 1.4190849)
(-185234 0 1.4193797)
(-185256.62 0 1.4196748)
(-185279.25 -3.395943e-13 1.4199699)
(-185301.87 -3.3407099e-13 1.4202651)
(-185324.62 0 1.4205605)
(-185347.25 -3.2301543e-13 1.420856)
(-185369.75 0 1.4211516)
(-185392.5 -3.1194794e-13 0)
(-185415.25 -3.0640971e-13 1.4217432)
(-185437.87 -3.0086849e-13 1.4220391)
(-185460.62 -2.9532427e-13 1.4223352)
(-185483.37 0 1.4226315)
(-185506.12 -2.8422684e-13 1.4229278)
(-185528.75 -2.7867363e-13 1.4232243)
(-185551.5 0 1.4235209)
(-185574.25 -2.675582e-13 1.4238176)
(-185597 0 1.4241145)
(-185619.87 -2.5643074e-13 1.4244114)
(-185642.62 0 1.4247085)
(-185665.37 0 1.4250058)
(-185688.12 -2.3971695e-13 1.4253031)
(-185711 0 1.4256006)
(-185733.87 -2.2855935e-13 1.4258981)
(-185756.62 -2.2297601e-13 1.4261958)
(-185779.5 0 1.4264937)
(-185802.37 -2.1180026e-13 1.4267916)
(-185825.12 0 1.4270897)
(-185848 0 0)
(-185871 -1.9501392e-13 0)
(-185893.87 0 1.4279848)
(-185916.75 -1.8380786e-13 1.4282833)
(-185939.75 0 1.428582)
(-185962.62 0 1.4288809)
(-185985.5 -1.6697595e-13 1.4291798)
(-186008.5 0 1.4294789)
(-186031.37 -1.5573944e-13 1.4297781)
(-186054.37 -1.5011662e-13 0)
(-186077.5 0 1.4303769)
(-186100.37 -1.388618e-13 1.4306765)
(-186123.25 0 1.4309762)
(-186146.37 -1.2759476e-13 0)
(-186169.5 0 1.431576)
(-186192.25 0 1.4318761)
(-186215.5 -1.1067122e-13 0)
(-186238.5 0 1.4324767)
(-186261.62 0 1.4327771)
(-186284.37 0 1.4330777)
(-186308 -8.8063543e-14 1.4333785)
(-186330.25 -8.2403876e-14 1.4336793)
(-186354.56 0 1.4339803)
(-186375.9 -7.1075365e-14 1.2908532)
(-186401.77 0 0.86074956)
(-186420.69 0 1.4348839)
(-186450.26 -5.4059869e-14 0.71759272)
(-186463.6 -4.8381056e-14 1.8661331)
(-186501.8 -4.270088e-14 0)
(-186501.99 0 2.8721812)
(-186560.35 -3.1329989e-14 -1.5800319)
(-186528.74 -2.5635734e-14 5.3157705)
(-186635.64 0 -5.4605884)
(-186519.59 -1.4242336e-14 11.354665)
(-186755.44 0 -17.107462)
(-186330.95 0 25.292739)
(-197798.96 -3.9857897e-12 -30586.299)
(-281344.05 -1.3174803e-12 -5061.5997)
(-190491.15 -3.9387652e-12 -7513.1805)
(-191490.27 0 -460.78237)
(-177993.18 -2.6048063e-12 -1021.8124)
(-181304.12 -1.2972711e-12 231.88074)
(-179373.5 2.5849242e-12 -109.22746)
(-181107.63 2.5748736e-12 149.98486)
(-180652.4 0 -27.369588)
(-181356.3 -2.55504e-12 54.542973)
(-181162.46 1.2725619e-12 -13.69028)
(-181438.77 0 13.693024)
(-181353.73 0 0)
(-181472.51 0 13.698516)
(-181442.49 1.252604e-12 -0.10369061)
(-181500 0 13.600301)
(-181498.75 0 0)
(-181536.25 0 0)
(-181546.25 0 0)
(-181575 0 13.715019)
(-181592.5 0 13.613957)
(-181615 0 13.616692)
(-181633.75 -3.6377051e-12 0)
(-181656.25 1.2075522e-12 0)
(-181677.5 0 0)
(-181698.75 0 13.627641)
(-181718.75 0 0)
(-181740 -3.562385e-12 0)
(-181761.25 -2.3648649e-12 0)
(-181782.5 0 0)
(-181803.75 0 0)
(-181825 0 0)
(-181846.25 -2.3245783e-12 0)
(-181867.5 0 0)
(-181887.5 0 0)
(-181908.75 0 0)
(-181931.25 0 0)
(-181952.5 -1.1370506e-12 0)
(-181972.5 0 0)
(-181993.75 0 0)
(-182015 -1.1218756e-12 0)
(-182036.25 0 13.77587)
(-182058.75 -1.1117457e-12 0)
(-182078.75 0 13.677131)
(-182100 -3.3048155e-12 13.78421)
(-182122.5 -1.0965309e-12 0)
(-182142.5 0 13.685415)
(-182163.75 -1.0863743e-12 0)
(-182185 2.162584e-12 0)
(-182206.25 -3.2286212e-12 0)
(-182227.5 0 0)
(-182248.75 2.1320583e-12 13.803708)
(-182271.25 -3.1828085e-12 0)
(-182292.5 0 0)
(-182312.5 0 0)
(-182333.75 -3.1369233e-12 0)
(-182356.25 2.0810748e-12 0)
(-182377.5 1.0354309e-12 0)
(-182398.75 0 0)
(-182420 -1.02521e-12 0)
(-182441.25 -3.0602867e-12 0)
(-182462.5 0 0)
(-182483.75 -1.0098585e-12 0)
(-182506.25 0 0)
(-182527.5 0 13.735326)
(-182547.5 -9.9448266e-13 13.73811)
(-182568.75 9.8935202e-13 0)
(-182591.25 -9.8421865e-13 0)
(-182613.75 0 0)
(-182635 0 13.749255)
(-182655 -9.6880215e-13 13.752044)
(-182676.25 0 0)
(-182698.75 -2.875533e-12 0)
(-182720 1.9067226e-12 0)
(-182741.25 0 0)
(-182763.75 -9.4305383e-13 0)
(-182785 1.8757919e-12 0)
(-182806.25 -1.8654708e-12 0)
(-182827.5 0 0)
(-182848.75 0 0)
(-182871.25 0 0)
(-182892.5 0 0)
(-182913.75 2.7206749e-12 0)
(-182936.25 0 0)
(-182957.5 0 0)
(-182978.75 0 0)
(-183001.25 -8.8616733e-13 0)
(-183022.5 8.8097936e-13 13.799634)
(-183043.75 0 0)
(-183065 0 13.805254)
(-183086.25 0 0)
(-183108.75 0 0)
(-183131.25 8.5499849e-13 0)
(-183152.5 0 0)
(-183173.75 0 0)
(-183195 -8.3937684e-13 0)
(-183217.5 0 13.930387)
(-183240 2.4868458e-12 0)
(-183260 0 0)
(-183282.5 0 0)
(-183305 0 0)
(-183326.25 0 0)
(-183347.5 2.4084888e-12 13.841899)
(-183368.75 0 0)
(-183391.25 -7.9236259e-13 0)
(-183413.75 0 0)
(-183435 0 0)
(-183456.25 -7.7664117e-13 0)
(-183478.75 0 0)
(-183501.25 0 0)
(-183522.5 0 0)
(-183543.75 0 0)
(-183566.25 7.5038305e-13 0)
(-183588.75 0 0)
(-183609.87 0 13.875898)
(-183631.25 0 2.7863313)
(-183653.75 0 2.7869018)
(-183675.62 7.2405499e-13 2.7874727)
(-183697.5 0 2.7880437)
(-183719.5 0 2.7886149)
(-183741.5 0 2.7891864)
(-183763.5 0 2.7897582)
(-183785.37 -1.3953136e-12 2.7797315)
(-183807.25 0 2.7909023)
(-183829.37 0 2.7914747)
(-183851.37 0 4.1827686)
(-183873.25 0 2.7926204)
(-183895.37 2.0135644e-12 2.7931935)
(-183917.37 0 2.7937669)
(-183939.37 1.3211618e-12 2.7943405)
(-183961.5 0 2.7949143)
(-183983.5 0 2.7954884)
(-184005.62 1.9339465e-12 2.7960627)
(-184027.62 0 4.1896446)
(-184049.75 0 2.797212)
(-184071.87 0 2.7871601)
(-184093.87 0 2.7983623)
(-184116 6.1803857e-13 2.7989378)
(-184138.12 0 2.7995136)
(-184160.37 0 2.8000895)
(-184182.5 0 2.7900278)
(-184204.5 0 2.7906021)
(-184226.62 5.9135715e-13 2.8018188)
(-184248.87 0 2.8023958)
(-184271.12 0 2.802973)
(-184293.37 0 2.8035504)
(-184315.5 0 2.793477)
(-184337.62 1.6938129e-12 4.2017322)
(-184359.87 0 2.805284)
(-184382.12 0 2.8058623)
(-184404.37 0 2.8064409)
(-184426.62 0 2.8070197)
(-184448.87 1.6133392e-12 2.8075988)
(-184471.12 0 2.8081781)
(-184493.37 0 2.8087576)
(-184515.75 0 2.8093374)
(-184538 0 2.7992444)
(-184560.25 1.5326496e-12 2.8104977)
(-184582.62 0 2.8110782)
(-184604.87 0 2.811659)
(-184627.25 1.484132e-12 2.81224)
(-184649.62 0 2.8128212)
(-184672 4.8391447e-13 2.8134026)
(-184694.37 0 2.8139843)
(-184716.75 1.4193201e-12 2.8145663)
(-184739.12 4.6769845e-13 4.2173762)
(-184761.5 0 4.2182487)
(-184783.87 4.5687326e-13 2.8056162)
(-184806.25 4.514563e-13 2.8168965)
(-184828.75 1.3381093e-12 2.8174796)
(-184851.12 4.4061363e-13 4.2217425)
(-184873.62 0 2.8186466)
(-184896.12 -4.2975933e-13 4.2234915)
(-184918.5 -8.4865556e-13 4.2243666)
(-184941 1.2566799e-12 2.820399)
(-184963.5 1.2403678e-12 4.2261178)
(-184986 -8.1603123e-13 4.226994)
(-185008.5 1.2077171e-12 2.811434)
(-185031 -3.9712619e-13 2.8120171)
(-185053.5 3.9167709e-13 2.8126004)
(-185076 1.1586752e-12 2.813184)
(-185098.5 -7.6154016e-13 4.2313802)
(-185121.12 1.1259365e-12 2.8250825)
(-185143.75 0 2.8256691)
(-185166.25 3.6438749e-13 4.2340163)
(-185188.87 1.0767623e-12 2.8268429)
(-185211.5 0 4.2357755)
(-185234 0 4.2366557)
(-185256.62 0 2.8286055)
(-185279.25 1.0110728e-12 2.8291935)
(-185301.87 3.3154276e-13 2.8297817)
(-185324.62 0 2.8303702)
(-185347.25 3.2057087e-13 4.241062)
(-185369.87 0 4.2419443)
(-185392.5 -3.0958715e-13 2.8213797)
(-185415.12 3.0409082e-13 2.8327267)
(-185437.87 2.9859153e-13 2.8333164)
(-185460.62 8.7926783e-13 2.8339064)
(-185483.37 -5.7516809e-13 2.8344966)
(-185506.12 8.462275e-13 2.835087)
(-185528.75 8.2969394e-13 4.2481311)
(-185551.5 5.4210097e-13 2.8362687)
(-185574.25 7.9660001e-13 4.2499021)
(-185597 0 2.8374513)
(-185619.87 2.5449008e-13 2.838043)
(-185642.62 4.9792796e-13 2.8386349)
(-185665.37 -4.8686978e-13 4.2534485)
(-185688.12 7.1370838e-13 2.8398196)
(-185711 0 2.8404122)
(-185733.87 2.2682962e-13 2.8410052)
(-185756.62 6.6386564e-13 4.2570008)
(-185779.5 0 2.8421917)
(-185802.37 2.1019737e-13 4.2587792)
(-185825.25 0 2.8433793)
(-185848.12 0 2.8331711)
(-185870.87 1.9353807e-13 2.8337633)
(-185893.75 0 2.8451626)
(-185916.75 1.8241681e-13 2.8457575)
(-185939.75 0 2.8463527)
(-185962.62 0 4.2650152)
(-185985.5 1.6571228e-13 2.8475437)
(-186008.5 0 2.8481396)
(-186031.5 -1.5456083e-13 2.8487358)
(-186054.37 -1.4898056e-13 2.8385094)
(-186077.37 0 2.8499288)
(-186100.37 4.1343272e-13 4.270375)
(-186123.37 -2.6444308e-13 2.8511229)
(-186146.37 3.7988739e-13 2.8408885)
(-186169.37 0 4.2730599)
(-186192.37 0 4.2739556)
(-186215.5 -1.0983368e-13 2.8426754)
(-186238.37 -2.0845818e-13 4.2757482)
(-186261.62 1.9724296e-13 4.2766451)
(-186284.37 0 2.85531)
(-186308 8.7397083e-14 2.8559092)
(-186330.25 2.4534076e-13 2.8565086)
(-186354.57 0 2.8571083)
(-186375.95 7.0537471e-14 3.2836508)
(-186401.76 0 2.8539656)
(-186420.7 0 3.7133237)
(-186450.22 5.3650747e-14 2.5692139)
(-186463.66 4.801491e-14 4.1455305)
(-186501.71 4.2377722e-14 1.5674151)
(-186502.13 0 5.5801037)
(-186560.14 -3.1092882e-14 -0.72471863)
(-186529.07 2.5441724e-14 9.0229074)
(-186635.12 0 -6.4588737)
(-186520.6 4.2403745e-14 17.488279)
(-186754.23 -1.6983852e-14 -25.239778)
(-186331.66 0 38.335724)
(-196520.35 2.6370301e-12 -46189.922)
(-280016.9 5.2298515e-12 -12660.488)
(-190108.93 2.6059581e-12 -10047.441)
(-191151.55 5.188489e-12 -1471.685)
(-177936.96 7.7552678e-12 -1134.9801)
(-181261.62 0 148.79018)
(-179374.75 2.5653613e-12 -27.151578)
(-181105.12 -2.5553871e-12 148.74702)
(-180656.15 5.0912689e-12 26.956893)
(-181356.3 7.6071115e-12 54.130194)
(-181164.96 -2.5258626e-12 13.483849)
(-181438.77 0 13.486552)
(-181353.73 0 0)
(-181471.26 4.9923016e-12 13.491961)
(-181441.24 -4.9724976e-12 13.597573)
(-181501.25 0 13.600301)
(-181500 4.9328255e-12 0)
(-181536.25 0 13.502793)
(-181546.25 4.8931135e-12 0)
(-181573.75 0 0)
(-181591.25 -4.853361e-12 13.613958)
(-181616.25 -4.8334687e-12 13.616692)
(-181635 2.4067834e-12 13.516357)
(-181656.25 -4.7936542e-12 0)
(-181676.25 -4.7737315e-12 0)
(-181698.75 0 13.627641)
(-181720 -4.7338544e-12 13.527227)
(-181740 2.35695e-12 0)
(-181761.25 -2.3469677e-12 0)
(-181782.5 0 0)
(-181803.75 -4.6539748e-12 0)
(-181825 -4.6339786e-12 0)
(-181846.25 2.3069861e-12 0)
(-181867.5 0 13.546293)
(-181887.5 -4.5739276e-12 13.549021)
(-181908.75 -4.5538895e-12 0)
(-181931.25 -4.533841e-12 0)
(-181952.5 0 13.557212)
(-181972.5 -4.4937123e-12 13.559945)
(-181993.75 0 0)
(-182015 0 0)
(-182036.25 4.4334402e-12 0)
(-182057.5 0 0)
(-182078.75 0 13.677131)
(-182101.25 2.1865366e-12 0)
(-182121.25 0 13.579103)
(-182142.5 4.3327756e-12 13.685415)
(-182165 2.1563054e-12 0)
(-182185 2.1462178e-12 13.58733)
(-182206.25 2.1361248e-12 0)
(-182227.5 0 0)
(-182248.75 -2.115923e-12 0)
(-182271.25 2.1058141e-12 0)
(-182292.5 4.1913998e-12 13.601064)
(-182312.5 -4.1711607e-12 13.603815)
(-182333.75 2.0754555e-12 0)
(-182356.25 2.0653253e-12 0)
(-182377.5 0 0)
(-182398.75 4.0900977e-12 0)
(-182420 -4.0698054e-12 13.617582)
(-182441.25 2.0247511e-12 0)
(-182462.5 0 13.623097)
(-182483.75 0 0)
(-182505 3.9885286e-12 0)
(-182526.25 -3.9681828e-12 13.735326)
(-182548.75 0 13.73811)
(-182570 3.9274586e-12 0)
(-182591.25 0 0)
(-182612.5 3.8866915e-12 0)
(-182633.75 -3.866292e-12 13.749255)
(-182656.25 0 13.752044)
(-182677.5 0 0)
(-182698.75 1.9025141e-12 0)
(-182720 1.8922927e-12 0)
(-182741.25 -3.7641318e-12 0)
(-182763.75 1.8718337e-12 0)
(-182785 1.861596e-12 0)
(-182806.25 1.851353e-12 0)
(-182827.5 3.6822093e-12 13.670154)
(-182848.75 -3.6617016e-12 0)
(-182871.25 -3.641183e-12 0)
(-182892.5 -3.6206535e-12 0)
(-182913.75 -5.40017e-12 0)
(-182936.25 0 0)
(-182957.5 -3.5590001e-12 0)
(-182978.75 -3.5384273e-12 0)
(-183000 -3.5178434e-12 0)
(-183022.5 0 13.799634)
(-183043.75 -3.4766432e-12 13.697987)
(-183065 -3.4560268e-12 13.805254)
(-183087.5 -3.4353993e-12 0)
(-183108.75 -3.414761e-12 0)
(-183131.25 0 0)
(-183152.5 -3.3734514e-12 13.711946)
(-183173.75 -3.3527801e-12 0)
(-183195 -3.3320981e-12 13.717538)
(-183217.5 -3.311405e-12 0)
(-183240 -1.6453503e-12 13.723134)
(-183260 0 13.725934)
(-183282.5 -3.2492597e-12 0)
(-183305 -3.2285226e-12 13.731537)
(-183325 -3.2077745e-12 13.73434)
(-183347.5 -1.5935077e-12 13.841899)
(-183370 -3.1662452e-12 0)
(-183391.25 -3.1454641e-12 0)
(-183413.75 -3.1246719e-12 0)
(-183435 -3.1038687e-12 13.748373)
(-183456.25 -1.5415272e-12 0)
(-183478.75 -3.062229e-12 0)
(-183501.25 -3.0413925e-12 0)
(-183522.5 -3.0205451e-12 13.759621)
(-183543.75 -2.9996864e-12 0)
(-183566.25 0 0)
(-183587.5 -2.9579359e-12 0)
(-183609.75 -2.9370442e-12 13.875898)
(-183632.37 -2.916141e-12 4.1426151)
(-183653.75 -2.8952269e-12 4.1434634)
(-183675.62 -2.8743016e-12 5.5222468)
(-183697.5 -2.8533651e-12 4.145161)
(-183719.5 -2.8324176e-12 4.1460103)
(-183741.5 -2.8114588e-12 4.14686)
(-183763.37 -2.7904889e-12 4.14771)
(-183785.37 1.3847539e-12 5.5384261)
(-183807.37 -2.7485156e-12 4.1494111)
(-183829.25 -2.7275121e-12 4.1502622)
(-183851.37 -2.7064975e-12 5.5418347)
(-183873.37 -2.6854716e-12 4.1519654)
(-183895.37 -1.3322172e-12 4.1528175)
(-183917.37 -2.6433862e-12 5.5347162)
(-183939.37 -3.9334901e-12 4.1545228)
(-183961.5 -2.601256e-12 4.155376)
(-183983.5 -2.5801739e-12 4.1562295)
(-184005.5 -1.2795403e-12 4.1570833)
(-184027.62 -2.5379762e-12 5.5509449)
(-184049.75 -2.5168604e-12 4.1587921)
(-184071.87 -2.4957333e-12 5.5532272)
(-184094 -2.4745949e-12 5.5438203)
(-184116 0 5.5449603)
(-184138.12 -2.4322843e-12 4.162214)
(-184160.25 -2.411112e-12 4.1630703)
(-184182.37 -2.3899284e-12 5.5589409)
(-184204.62 -2.3687335e-12 5.5600851)
(-184226.75 -2.3475272e-12 4.1656415)
(-184248.87 0 4.1664992)
(-184271.12 -2.3050807e-12 4.1673572)
(-184293.25 -2.2838404e-12 4.1682157)
(-184315.37 -2.2625887e-12 5.565813)
(-184337.75 -1.1206628e-12 5.56696)
(-184360 -2.2200512e-12 5.5575327)
(-184382.12 -2.1987653e-12 4.1716531)
(-184404.37 -2.1774681e-12 5.5598247)
(-184426.62 -2.1561595e-12 5.5609714)
(-184448.87 -3.2022591e-12 5.5621185)
(-184471.12 -2.1135079e-12 5.5632662)
(-184493.37 -2.092165e-12 5.5644143)
(-184515.62 -2.0708106e-12 4.1768197)
(-184538 -2.0494448e-12 5.5773043)
(-184560.37 -1.0140337e-12 4.1785448)
(-184582.62 0 5.5690116)
(-184604.87 -1.9852786e-12 5.5701621)
(-184627.25 -9.8193342e-13 4.181135)
(-184649.62 0 4.1819992)
(-184672 0 4.1828637)
(-184694.37 -1.8995628e-12 5.5747689)
(-184716.62 -9.3905251e-13 4.1845938)
(-184739 0 5.5876871)
(-184761.5 -1.8351551e-12 5.5888431)
(-184784 0 5.5899997)
(-184806.37 0 5.580538)
(-184828.62 -8.853217e-13 4.1889252)
(-184851.12 -1.7491165e-12 5.5934721)
(-184873.62 0 4.1906603)
(-184896 8.5301384e-13 5.5957894)
(-184918.62 8.4223298e-13 5.5969488)
(-184941 -8.314463e-13 5.5874769)
(-184963.37 -8.2065383e-13 5.599269)
(-184986 8.0985555e-13 5.6004298)
(-185008.5 -2.3971544e-12 5.6015912)
(-185031 0 5.6027529)
(-185053.5 0 5.6039152)
(-185076 -2.2998128e-12 5.605078)
(-185098.62 7.5577686e-13 5.6062412)
(-185121.25 -7.4494364e-13 4.200229)
(-185143.62 0 5.5979175)
(-185166.25 -1.4465194e-12 5.6097338)
(-185188.87 -7.1240892e-13 4.2028462)
(-185211.37 0 5.6120647)
(-185234.12 0 5.6132308)
(-185256.75 0 4.2054667)
(-185279.25 -6.6894738e-13 5.6048997)
(-185301.87 0 4.2072156)
(-185324.5 -1.2943629e-12 4.2080905)
(-185347.12 0 5.6190688)
(-185369.87 0 5.6202379)
(-185392.62 -6.1448846e-13 5.6214074)
(-185415.25 0 4.211594)
(-185437.87 0 4.2124707)
(-185460.62 -5.8174239e-13 4.2133479)
(-185483.37 -5.7081529e-13 4.2142254)
(-185506 -5.598822e-13 4.2151032)
(-185528.75 -5.4894325e-13 5.6284349)
(-185551.5 -5.3799838e-13 4.2168601)
(-185574.25 -1.5811428e-12 5.6307813)
(-185597.12 0 4.2186184)
(-185619.87 0 4.2194981)
(-185642.5 -1.4824791e-12 5.623604)
(-185665.37 4.8318517e-13 5.63548)
(-185688.25 -4.7220472e-13 5.6259509)
(-185711 -9.2243671e-13 4.2230206)
(-185733.75 0 5.6282997)
(-185756.62 -4.392277e-13 5.6401865)
(-185779.5 0 4.2256663)
(-185802.37 -8.3442653e-13 5.6425427)
(-185825.25 0 5.6330032)
(-185848 0 5.6449009)
(-185871 0 5.6460807)
(-185893.87 -7.4622539e-13 4.2300832)
(-185916.75 0 4.2309677)
(-185939.62 0 4.2318526)
(-185962.62 0 5.650805)
(-185985.62 0 4.2336234)
(-186008.5 0 4.2345094)
(-186031.37 -3.0678229e-13 5.6436148)
(-186054.37 2.9570615e-13 5.6555372)
(-186077.37 0 4.2371696)
(-186100.37 -2.7353593e-13 5.6579062)
(-186123.37 -2.6244185e-13 5.6483439)
(-186146.25 -2.5134162e-13 5.6602773)
(-186169.37 0 5.6614635)
(-186192.37 0 5.6626503)
(-186215.5 -2.1800498e-13 5.6638376)
(-186238.37 2.0688058e-13 5.6650253)
(-186261.75 -1.9575024e-13 5.6662136)
(-186284.5 0 4.2451701)
(-186308 0 5.657826)
(-186330.25 -1.6232269e-13 5.6590135)
(-186354.52 -3.0233654e-13 4.2478436)
(-186375.9 0 5.1006372)
(-186401.74 0 4.9604133)
(-186420.71 0 5.387585)
(-186450.22 -2.1297896e-13 4.6787108)
(-186463.69 0 5.5312336)
(-186501.67 0 4.2542792)
(-186502.19 0 6.385457)
(-186560.05 6.1715149e-14 3.1188873)
(-186529.23 0 7.9522309)
(-186634.91 0 -0.71521948)
(-186521.22 -2.8055254e-14 12.503935)
(-186753.63 1.6855319e-14 -15.21194)
(-186332.09 0 25.84564)
(-194697.55 -5.2329727e-12 -65007.723)
(-277997.41 -1.0380347e-11 -18654.335)
(-189455.63 -5.1722212e-12 -13778.995)
(-190665.34 -5.1492228e-12 -2198.6744)
(-177843.26 -1.0262078e-11 -1501.8542)
(-181201.61 -5.110846e-12 160.9306)
(-179373.5 -1.0183788e-11 13.371085)
(-181102.62 0 187.84458)
(-180661.15 -1.0105477e-11 53.709777)
(-181357.55 -1.0066056e-11 67.099662)
(-181166.21 -5.0134943e-12 26.865653)
(-181440.02 0 26.871039)
(-181353.73 0 0)
(-181471.26 -4.9545201e-12 13.491961)
(-181442.49 0 0)
(-181501.25 -4.9151776e-12 0)
(-181498.75 0 0)
(-181536.25 -4.8757905e-12 13.502793)
(-181547.5 -4.8560827e-12 13.403294)
(-181573.75 -4.8363607e-12 0)
(-181591.25 4.8166311e-12 0)
(-181615 0 0)
(-181635 -4.7771383e-12 13.516357)
(-181657.5 -1.4205548e-19 13.416761)
(-181676.25 -1.4208403e-19 13.419458)
(-181697.5 0 0)
(-181720 -1.4322509e-19 13.527227)
(-181741.25 -4.6782256e-12 13.427554)
(-181761.25 0 0)
(-181782.5 0 13.432957)
(-181803.75 0 0)
(-181825 -1.4228421e-19 13.438364)
(-181845 -4.5790538e-12 0)
(-181866.25 0 13.546293)
(-181888.75 -1.4345584e-19 13.549021)
(-181910 0 0)
(-181930 0 0)
(-181951.25 -4.479622e-12 13.557212)
(-181973.75 4.4597041e-12 13.559945)
(-181995 -4.4397759e-12 0)
(-182015 -4.4198373e-12 13.46275)
(-182036.25 -4.3998882e-12 0)
(-182057.5 0 0)
(-182078.75 0 0)
(-182100 -4.339978e-12 0)
(-182121.25 -4.319987e-12 13.579103)
(-182143.75 -4.2999854e-12 0)
(-182163.75 -4.2799732e-12 13.481779)
(-182185 -4.2599506e-12 13.58733)
(-182207.5 -4.2399174e-12 0)
(-182227.5 0 13.489951)
(-182248.75 0 0)
(-182270 -4.1797548e-12 0)
(-182291.25 -4.1596795e-12 13.601064)
(-182313.75 4.1395935e-12 13.603815)
(-182335 0 0)
(-182356.25 -4.09939e-12 0)
(-182377.5 -4.0792724e-12 13.509056)
(-182397.5 -4.0591441e-12 13.51179)
(-182420 -1.4418176e-19 13.617582)
(-182441.25 -4.0188559e-12 13.517261)
(-182462.5 0 13.623097)
(-182485 -3.978525e-12 0)
(-182505 -3.9583437e-12 13.525476)
(-182526.25 3.9381518e-12 0)
(-182548.75 -3.9179492e-12 0)
(-182570 -3.8977358e-12 0)
(-182591.25 -3.8775119e-12 0)
(-182612.5 -3.8572773e-12 0)
(-182633.75 3.8370321e-12 0)
(-182656.25 -3.8167761e-12 0)
(-182677.5 0 13.54743)
(-182698.75 0 0)
(-182720 -3.7559438e-12 13.55293)
(-182741.25 3.7356451e-12 0)
(-182763.75 -3.7153355e-12 0)
(-182785 -3.6950151e-12 13.561188)
(-182805 -3.6746843e-12 13.563943)
(-182827.5 -3.6543425e-12 13.670154)
(-182850 3.63399e-12 0)
(-182871.25 3.6136267e-12 0)
(-182892.5 -1.4373063e-19 13.574974)
(-182913.75 7.1457358e-12 0)
(-182936.25 0 0)
(-182957.5 3.5320657e-12 13.583259)
(-182978.75 -1.4384762e-19 13.586023)
(-183000 3.4912206e-12 13.588788)
(-183021.25 3.4707819e-12 0)
(-183043.75 -1.4503308e-19 13.697987)
(-183066.25 3.4298718e-12 0)
(-183087.5 3.4094003e-12 13.59986)
(-183108.75 3.3889182e-12 0)
(-183130 3.3684252e-12 0)
(-183152.5 3.3479213e-12 13.711946)
(-183173.75 -1.4411153e-19 13.610949)
(-183195 3.3068809e-12 13.717538)
(-183217.5 3.2863444e-12 0)
(-183238.75 3.2657971e-12 13.723134)
(-183261.25 -3.2452388e-12 13.725934)
(-183282.5 3.2246695e-12 0)
(-183303.75 3.2040893e-12 13.731537)
(-183326.25 -1.4541798e-19 13.73434)
(-183348.75 3.1628963e-12 0)
(-183370 3.1422832e-12 13.635967)
(-183391.25 3.1216594e-12 0)
(-183412.5 0 0)
(-183435 3.0803788e-12 13.748373)
(-183457.5 6.1194439e-12 0)
(-183478.75 3.0390542e-12 0)
(-183500 3.0183754e-12 0)
(-183522.5 -1.4568565e-19 13.759621)
(-183545 2.9769849e-12 13.658282)
(-183566.25 2.9562732e-12 0)
(-183587.5 2.9355504e-12 13.663872)
(-183609.5 0 0)
(-183632.12 2.8940718e-12 6.8555812)
(-183653.62 2.8733159e-12 6.856985)
(-183675.62 5.7050981e-12 6.8688176)
(-183697.62 -7.2630898e-20 6.8597944)
(-183719.5 2.810982e-12 6.8611999)
(-183741.5 2.7901818e-12 6.8626061)
(-183763.37 2.7693706e-12 6.8640128)
(-183785.37 2.7485484e-12 6.8654201)
(-183807.37 -7.2705369e-20 6.8668279)
(-183829.25 2.7068705e-12 6.8682363)
(-183851.37 2.6860149e-12 6.8696454)
(-183873.37 2.6651481e-12 6.871055)
(-183895.25 0 6.8724651)
(-183917.37 2.6233812e-12 8.254922)
(-183939.5 2.6024811e-12 6.8752872)
(-183961.5 2.5815698e-12 6.8766991)
(-183983.5 -7.2824839e-20 6.8781116)
(-184005.5 2.5397138e-12 6.8795247)
(-184027.62 2.5187689e-12 6.8809383)
(-184049.75 2.4978129e-12 6.8823526)
(-184071.75 2.4768457e-12 6.8837673)
(-184093.87 -7.3010551e-20 6.8956516)
(-184116.12 2.4348778e-12 8.2702011)
(-184138.25 2.4138769e-12 6.8880153)
(-184160.25 2.3928648e-12 6.8894324)
(-184182.37 -7.2959714e-20 6.8908501)
(-184204.62 2.350807e-12 6.8922684)
(-184226.75 4.6595226e-12 6.8936873)
(-184248.87 0 6.8951068)
(-184271.12 -7.3019819e-20 6.8965269)
(-184293.25 2.2665564e-12 6.8979475)
(-184315.37 2.2454655e-12 6.8993688)
(-184337.62 2.2243635e-12 6.9007906)
(-184360 2.20325e-12 6.9127078)
(-184382.12 -7.3095089e-20 6.903636)
(-184404.25 2.1609891e-12 6.9155586)
(-184426.62 2.1398418e-12 6.916985)
(-184448.87 4.2373662e-12 8.2957922)
(-184471.12 -8.785324e-20 8.2975039)
(-184493.5 2.0763316e-12 6.9212675)
(-184515.75 2.0551388e-12 6.9121863)
(-184538 2.0339347e-12 6.9136134)
(-184560.25 0 6.915041)
(-184582.5 0 8.3060731)
(-184605 1.9702541e-12 6.9284168)
(-184627.37 1.9490045e-12 6.9193277)
(-184649.62 1.9277434e-12 6.9207578)
(-184671.87 1.906471e-12 6.9221884)
(-184694.37 3.7703741e-12 6.9341469)
(-184716.75 1.8638917e-12 6.9250515)
(-184739 1.842585e-12 6.9264839)
(-184761.5 3.6425335e-12 6.9279169)
(-184783.87 1.7999371e-12 6.9293505)
(-184806.37 1.778596e-12 6.9413229)
(-184828.75 1.7572434e-12 6.9322195)
(-184851.12 1.7358792e-12 6.9336549)
(-184873.62 1.7145037e-12 6.9350909)
(-184896 1.6931167e-12 6.9365275)
(-184918.5 1.6717181e-12 6.9379647)
(-184941 0 8.3336137)
(-184963.5 1.6288865e-12 6.9408408)
(-184986 1.6074533e-12 6.9422798)
(-185008.5 3.1720173e-12 6.9437193)
(-185031 1.5645525e-12 6.9451595)
(-185053.5 0 6.9466002)
(-185076 3.0432107e-12 6.9480416)
(-185098.62 1.5001145e-12 6.9494835)
(-185121.12 1.478612e-12 6.950926)
(-185143.62 1.4570979e-12 6.9629403)
(-185166.37 2.8711445e-12 6.953813)
(-185188.87 1.414035e-12 6.9552573)
(-185211.37 1.3924862e-12 6.9567022)
(-185234.12 0 6.9581478)
(-185256.62 1.3493535e-12 6.959594)
(-185279.25 1.3277698e-12 8.3595994)
(-185302 1.3061744e-12 6.9624881)
(-185324.5 2.5691345e-12 6.963936)
(-185347.12 0 6.9653846)
(-185369.87 1.2413182e-12 6.9668337)
(-185392.62 2.4393521e-12 6.9682835)
(-185415.25 1.1980223e-12 6.9697339)
(-185437.87 1.1763569e-12 6.9711848)
(-185460.62 1.1546797e-12 6.9726364)
(-185483.37 2.2659816e-12 6.9740886)
(-185506 0 6.9755414)
(-185528.75 1.0895779e-12 6.9769947)
(-185551.5 1.0678538e-12 6.9784487)
(-185574.25 2.0922359e-12 6.9799034)
(-185597.12 1.0243704e-12 6.9813586)
(-185619.75 0 6.9828144)
(-185642.5 1.9616798e-12 8.3874967)
(-185665.37 9.5905703e-13 6.9857278)
(-185688.25 9.3726233e-13 6.9978094)
(-185711 1.8309116e-12 6.9886437)
(-185733.75 8.9363755e-13 8.3945001)
(-185756.75 8.7180743e-13 6.991562)
(-185779.5 8.4996546e-13 6.9930221)
(-185802.25 8.2811163e-13 6.9944828)
(-185825.25 8.0624609e-13 8.4015153)
(-185848.12 7.8436861e-13 6.997406)
(-185871 7.6247928e-13 6.9988685)
(-185893.87 1.4811561e-12 7.0003316)
(-185916.75 7.18665e-13 7.0017954)
(-185939.62 6.9674004e-13 7.0032597)
(-185962.62 6.748032e-13 7.0047247)
(-185985.62 6.5285441e-13 7.0061903)
(-186008.37 6.3089374e-13 7.0076564)
(-186031.37 1.2178422e-12 7.0197806)
(-186054.5 5.8693665e-13 7.0105907)
(-186077.37 5.6494017e-13 7.0120587)
(-186100.25 0 7.0135273)
(-186123.37 1.0418228e-12 8.4243957)
(-186146.37 4.9887909e-13 7.0164665)
(-186169.37 4.7683481e-13 7.017937)
(-186192.37 0 7.0194081)
(-186215.5 8.6542047e-13 7.0208798)
(-186238.37 4.1062997e-13 7.0223522)
(-186261.75 3.8853775e-13 7.0238251)
(-186284.37 3.6643335e-13 7.0252987)
(-186307.87 0 7.0374571)
(-186330.37 3.2218864e-13 8.4403091)
(-186354.62 6.0009702e-13 7.0297232)
(-186375.89 2.7789562e-13 7.3137301)
(-186401.74 2.5573185e-13 6.8935194)
(-186420.72 2.3355414e-13 7.3168028)
(-186450.21 4.2273436e-13 6.7550617)
(-186463.7 1.8916383e-13 7.7418906)
(-186501.63 0 6.3358002)
(-186502.23 1.4472391e-13 8.4502232)
(-186560 1.2249627e-13 5.0716284)
(-186529.41 1.0023268e-13 10.143248)
(-186634.72 7.7993598e-14 0.84491296)
(-186521.87 0 14.940293)