/*--------------------------------*- C++ -*----------------------------------*\
  =========                 |
  \\      /  F ield         | OpenFOAM: The Open Source CFD Toolbox
   \\    /   O peration     | Website:  https://openfoam.org
    \\  /    A nd           | Version:  6
     \\/     M anipulation  |
\*---------------------------------------------------------------------------*/
FoamFile
{
    version     2.0;
    format      ascii;
    class       volScalarField;
    location    "10000";
    object      p;
}
// * * * * * * * * * * * * * * * * * * * * * * * * * * * * * * * * * * * * * //

dimensions      [0 2 -2 0 0 0 0];

internalField   nonuniform List<scalar> 
6250
(
18439302
18280201
18213598
18127774
18060201
17985373
17915125
17841879
17770235
17697361
17625149
17552432
17479997
17407349
17334820
17262196
17189619
17116997
17044390
16971759
16899130
16826486
16753838
16681179
16608513
16535837
16463154
16390462
16317762
16245053
16172336
16099610
16026876
15954133
15881382
15808623
15735855
15663078
15590293
15517500
15444698
15371887
15299069
15226241
15153405
15080561
15007708
14934847
14861977
14789099
14716212
14643316
14570413
14497500
14424579
14351650
14278712
14205765
14132810
14059846
13986874
13913893
13840904
13767906
13694899
13621884
13548861
13475829
13402788
13329738
13256680
13183614
13110539
13037455
12964363
12891262
12818152
12745034
12671907
12598772
12525628
12452475
12379314
12306144
12232965
12159778
12086582
12013377
11940164
11866942
11793712
11720473
11647225
11573968
11500703
11427429
11354146
11280855
11207555
11134247
11060929
10987603
10914268
10840925
10767573
10694212
10620842
10547464
10474077
10400681
10327276
10253863
10180441
10107010
10033570
9960122
9886664.9
9813199
9739724.4
9666241
9592748.8
9519247.8
9445738.1
9372219.5
9298692.2
9225156
9151611.1
9078057.4
9004494.8
8930923.5
8857343.3
8783754.3
8710156.5
8636549.8
8562934.4
8489310.1
8415676.9
8342034.9
8268384.1
8194724.4
8121055.9
8047378.5
7973692.2
7899997.1
7826293.1
7752580.2
7678858.5
7605127.8
7531388.3
7457639.9
7383882.6
7310116.4
7236341.3
7162557.3
7088764.4
7014962.6
6941151.9
6867332.2
6793503.6
6719666.1
6645819.7
6571964.3
6498100
6424226.7
6350344.5
6276453.3
6202553.2
6128644.2
6054726.1
5980799.1
5906863.1
5832918.2
5758964.2
5685001.3
5611029.4
5537048.5
5463058.6
5389059.8
5315051.9
5241035
5167009.1
5092974.1
5018930.2
4944877.2
4870815.2
4796744.2
4722664.1
4648575
4574476.9
4500369.7
4426253.5
4352128.2
4277993.8
4203850.4
4129698
4055536.4
3981365.8
3907186.1
3832997.3
3758799.4
3684592.4
3610376.4
3536151.2
3461917
3387673.6
3313421.1
3239159.5
3164888.8
3090609
3016320
2942021.9
2867714.7
2793398.3
2719072.8
2644738.2
2570394.4
2496041.4
2421679.3
2347308
2272927.5
2198537.9
2124139.1
2049731.1
1975314
1900887.6
1826452
1752007.3
1677553.4
1603090.2
1528617.8
1454136.4
1379645.4
1305145.6
1230636.1
1156118.1
1081589.7
1007053.9
932506.05
857953.18
783384.63
708816.63
634224.42
559645.75
485022.98
410444.16
335774.69
261221.18
186466.16
112005.53
37061.774
18438422
18280173
18213353
18127779
18060162
17985384
17915119
17841885
17770233
17697363
17625148
17552433
17479997
17407350
17334819
17262196
17189619
17116997
17044390
16971760
16899130
16826486
16753838
16681179
16608513
16535837
16463154
16390462
16317762
16245053
16172336
16099610
16026876
15954133
15881382
15808623
15735855
15663078
15590293
15517500
15444698
15371888
15299069
15226241
15153406
15080561
15007708
14934847
14861977
14789099
14716212
14643317
14570413
14497500
14424579
14351650
14278712
14205765
14132810
14059846
13986874
13913893
13840904
13767906
13694899
13621884
13548861
13475829
13402788
13329738
13256680
13183614
13110539
13037455
12964363
12891262
12818152
12745034
12671907
12598772
12525628
12452475
12379314
12306144
12232965
12159778
12086582
12013377
11940164
11866942
11793712
11720473
11647225
11573968
11500703
11427429
11354147
11280855
11207555
11134247
11060929
10987603
10914268
10840925
10767573
10694212
10620842
10547464
10474077
10400681
10327276
10253863
10180441
10107010
10033570
9960122.1
9886665
9813199.1
9739724.5
9666241.1
9592748.9
9519247.9
9445738.1
9372219.6
9298692.3
9225156.1
9151611.2
9078057.5
9004494.9
8930923.6
8857343.4
8783754.4
8710156.6
8636549.9
8562934.5
8489310.1
8415677
8342035
8268384.2
8194724.5
8121055.9
8047378.5
7973692.3
7899997.2
7826293.2
7752580.3
7678858.5
7605127.9
7531388.4
7457640
7383882.7
7310116.5
7236341.4
7162557.4
7088764.5
7014962.7
6941151.9
6867332.3
6793503.7
6719666.2
6645819.8
6571964.4
6498100.1
6424226.8
6350344.6
6276453.4
6202553.3
6128644.2
6054726.2
5980799.2
5906863.2
5832918.3
5758964.3
5685001.4
5611029.5
5537048.6
5463058.7
5389059.8
5315051.9
5241035
5167009.1
5092974.2
5018930.3
4944877.3
4870815.3
4796744.3
4722664.2
4648575.1
4574477
4500369.8
4426253.6
4352128.3
4277993.9
4203850.5
4129698
4055536.5
3981365.9
3907186.2
3832997.4
3758799.5
3684592.5
3610376.5
3536151.3
3461917.1
3387673.7
3313421.2
3239159.6
3164888.9
3090609.1
3016320.1
2942022
2867714.8
2793398.4
2719072.9
2644738.2
2570394.4
2496041.5
2421679.4
2347308.1
2272927.6
2198538
2124139.2
2049731.2
1975314
1900887.7
1826452.1
1752007.4
1677553.4
1603090.3
1528617.9
1454136.4
1379645.5
1305145.7
1230636.2
1156118.2
1081589.8
1007054
932506.14
857953.24
783384.73
708816.68
634224.55
559645.75
485023.18
410444.05
335775.06
261220.8
186466.95
112004.34
37063.533
18437053
18279828
18213046
18127740
18060126
17985390
17915117
17841890
17770233
17697365
17625148
17552433
17479997
17407350
17334820
17262197
17189619
17116997
17044390
16971760
16899131
16826487
16753838
16681179
16608513
16535838
16463154
16390462
16317762
16245053
16172336
16099610
16026876
15954133
15881382
15808623
15735855
15663078
15590293
15517500
15444698
15371888
15299069
15226242
15153406
15080561
15007709
14934847
14861977
14789099
14716212
14643317
14570413
14497500
14424579
14351650
14278712
14205765
14132810
14059846
13986874
13913893
13840904
13767906
13694900
13621885
13548861
13475829
13402788
13329739
13256681
13183614
13110539
13037455
12964363
12891262
12818152
12745034
12671907
12598772
12525628
12452475
12379314
12306144
12232965
12159778
12086582
12013378
11940164
11866943
11793712
11720473
11647225
11573968
11500703
11427429
11354147
11280855
11207555
11134247
11060929
10987603
10914269
10840925
10767573
10694212
10620842
10547464
10474077
10400681
10327276
10253863
10180441
10107010
10033571
9960122.2
9886665.1
9813199.2
9739724.6
9666241.2
9592749
9519248
9445738.3
9372219.7
9298692.4
9225156.3
9151611.3
9078057.6
9004495
8930923.7
8857343.5
8783754.5
8710156.7
8636550.1
8562934.6
8489310.3
8415677.1
8342035.1
8268384.3
8194724.6
8121056.1
8047378.7
7973692.4
7899997.3
7826293.3
7752580.4
7678858.7
7605128.1
7531388.5
7457640.1
7383882.8
7310116.6
7236341.5
7162557.5
7088764.6
7014962.8
6941152.1
6867332.4
6793503.8
6719666.3
6645819.9
6571964.5
6498100.2
6424226.9
6350344.7
6276453.6
6202553.5
6128644.4
6054726.3
5980799.3
5906863.4
5832918.4
5758964.5
5685001.6
5611029.6
5537048.8
5463058.9
5389060
5315052.1
5241035.2
5167009.3
5092974.4
5018930.4
4944877.4
4870815.5
4796744.4
4722664.4
4648575.3
4574477.1
4500369.9
4426253.7
4352128.4
4277994.1
4203850.7
4129698.2
4055536.6
3981366
3907186.3
3832997.5
3758799.6
3684592.7
3610376.6
3536151.5
3461917.2
3387673.8
3313421.3
3239159.8
3164889
3090609.2
3016320.2
2942022.2
2867714.9
2793398.6
2719073
2644738.4
2570394.6
2496041.6
2421679.5
2347308.2
2272927.8
2198538.1
2124139.3
2049731.3
1975314.2
1900887.8
1826452.3
1752007.5
1677553.6
1603090.5
1528618.1
1454136.6
1379645.7
1305145.9
1230636.3
1156118.3
1081589.9
1007054.1
932506.28
857953.38
783384.89
708816.81
634224.71
559645.86
485023.37
410444.11
335775.32
261220.73
186467.38
112003.77
37064.447
18435000
18279235
18212609
18127670
18060078
17985395
17915117
17841896
17770235
17697367
17625149
17552434
17479997
17407351
17334820
17262197
17189619
17116998
17044390
16971760
16899131
16826487
16753839
16681179
16608513
16535838
16463155
16390462
16317762
16245053
16172336
16099610
16026876
15954134
15881383
15808623
15735855
15663079
15590294
15517500
15444698
15371888
15299069
15226242
15153406
15080562
15007709
14934847
14861978
14789099
14716212
14643317
14570413
14497501
14424580
14351650
14278712
14205765
14132810
14059847
13986874
13913894
13840904
13767906
13694900
13621885
13548861
13475829
13402788
13329739
13256681
13183614
13110539
13037455
12964363
12891262
12818152
12745034
12671908
12598772
12525628
12452475
12379314
12306144
12232965
12159778
12086582
12013378
11940165
11866943
11793712
11720473
11647225
11573969
11500703
11427430
11354147
11280856
11207556
11134247
11060930
10987604
10914269
10840925
10767573
10694212
10620843
10547464
10474077
10400681
10327277
10253863
10180441
10107010
10033571
9960122.4
9886665.3
9813199.5
9739724.8
9666241.4
9592749.2
9519248.2
9445738.5
9372219.9
9298692.6
9225156.5
9151611.5
9078057.8
9004495.3
8930923.9
8857343.7
8783754.7
8710156.9
8636550.3
8562934.8
8489310.5
8415677.4
8342035.4
8268384.5
8194724.8
8121056.3
8047378.9
7973692.6
7899997.5
7826293.5
7752580.6
7678858.9
7605128.3
7531388.8
7457640.3
7383883.1
7310116.9
7236341.8
7162557.8
7088764.9
7014963
6941152.3
6867332.6
6793504.1
6719666.6
6645820.1
6571964.7
6498100.4
6424227.2
6350344.9
6276453.8
6202553.7
6128644.6
6054726.6
5980799.5
5906863.6
5832918.6
5758964.7
5685001.8
5611029.9
5537049
5463059.1
5389060.2
5315052.3
5241035.4
5167009.5
5092974.6
5018930.6
4944877.7
4870815.7
4796744.6
4722664.6
4648575.5
4574477.3
4500370.2
4426253.9
4352128.6
4277994.3
4203850.9
4129698.4
4055536.8
3981366.2
3907186.5
3832997.7
3758799.8
3684592.9
3610376.8
3536151.7
3461917.4
3387674
3313421.6
3239160
3164889.3
3090609.4
3016320.5
2942022.4
2867715.1
2793398.8
2719073.3
2644738.6
2570394.8
2496041.8
2421679.7
2347308.4
2272928
2198538.3
2124139.5
2049731.6
1975314.4
1900888
1826452.5
1752007.8
1677553.8
1603090.7
1528618.3
1454136.8
1379645.9
1305146.1
1230636.5
1156118.6
1081590.2
1007054.3
932506.5
857953.59
783385.11
708817.01
634224.94
559646.05
485023.63
410444.27
335775.62
261220.75
186467.83
112003.27
37065.351
18432201
18278436
18212018
18127576
18060014
17985402
17915118
17841904
17770237
17697370
17625150
17552435
17479997
17407351
17334820
17262197
17189619
17116998
17044391
16971760
16899131
16826487
16753839
16681180
16608514
16535838
16463155
16390463
16317762
16245054
16172336
16099611
16026876
15954134
15881383
15808623
15735855
15663079
15590294
15517500
15444699
15371888
15299069
15226242
15153406
15080562
15007709
14934848
14861978
14789099
14716213
14643317
14570413
14497501
14424580
14351650
14278712
14205766
14132811
14059847
13986875
13913894
13840904
13767907
13694900
13621885
13548861
13475829
13402788
13329739
13256681
13183615
13110539
13037456
12964363
12891262
12818153
12745035
12671908
12598772
12525628
12452476
12379314
12306144
12232966
12159779
12086583
12013378
11940165
11866943
11793713
11720473
11647225
11573969
11500704
11427430
11354147
11280856
11207556
11134247
11060930
10987604
10914269
10840926
10767573
10694212
10620843
10547464
10474077
10400681
10327277
10253864
10180441
10107011
10033571
9960122.7
9886665.6
9813199.7
9739725.1
9666241.7
9592749.5
9519248.5
9445738.8
9372220.2
9298692.9
9225156.8
9151611.8
9078058.1
9004495.6
8930924.2
8857344
8783755
8710157.2
8636550.6
8562935.1
8489310.8
8415677.6
8342035.7
8268384.8
8194725.1
8121056.6
8047379.2
7973692.9
7899997.8
7826293.8
7752580.9
7678859.2
7605128.6
7531389
7457640.6
7383883.3
7310117.1
7236342.1
7162558.1
7088765.1
7014963.3
6941152.6
6867332.9
6793504.4
6719666.8
6645820.4
6571965
6498100.7
6424227.4
6350345.2
6276454.1
6202554
6128644.9
6054726.8
5980799.8
5906863.9
5832918.9
5758965
5685002.1
5611030.2
5537049.3
5463059.4
5389060.5
5315052.6
5241035.7
5167009.8
5092974.9
5018930.9
4944877.9
4870816
4796744.9
4722664.9
4648575.8
4574477.6
4500370.5
4426254.2
4352128.9
4277994.6
4203851.2
4129698.7
4055537.1
3981366.5
3907186.8
3832998
3758800.1
3684593.2
3610377.1
3536152
3461917.7
3387674.3
3313421.9
3239160.3
3164889.5
3090609.7
3016320.8
2942022.7
2867715.4
2793399.1
2719073.6
2644738.9
2570395.1
2496042.1
2421680
2347308.7
2272928.3
2198538.6
2124139.8
2049731.8
1975314.7
1900888.3
1826452.8
1752008.1
1677554.1
1603091
1528618.6
1454137.1
1379646.2
1305146.4
1230636.8
1156118.8
1081590.5
1007054.6
932506.8
857953.87
783385.41
708817.29
634225.26
559646.31
485023.97
410444.47
335776.04
261220.79
186468.44
112002.58
37066.607
18428637
18277435
18211276
18127460
18059935
17985412
17915118
17841914
17770240
17697374
17625151
17552437
17479998
17407352
17334820
17262198
17189620
17116998
17044391
16971761
16899131
16826487
16753839
16681180
16608514
16535838
16463155
16390463
16317763
16245054
16172337
16099611
16026877
15954134
15881383
15808624
15735856
15663079
15590294
15517501
15444699
15371889
15299070
15226242
15153407
15080562
15007709
14934848
14861978
14789100
14716213
14643318
14570414
14497501
14424580
14351651
14278713
14205766
14132811
14059847
13986875
13913894
13840905
13767907
13694900
13621885
13548862
13475830
13402789
13329739
13256681
13183615
13110540
13037456
12964364
12891263
12818153
12745035
12671908
12598773
12525629
12452476
12379315
12306145
12232966
12159779
12086583
12013378
11940165
11866943
11793713
11720474
11647226
11573969
11500704
11427430
11354148
11280856
11207556
11134248
11060930
10987604
10914269
10840926
10767574
10694213
10620843
10547465
10474078
10400682
10327277
10253864
10180442
10107011
10033571
9960123.1
9886666
9813200.1
9739725.5
9666242.1
9592749.9
9519248.9
9445739.2
9372220.6
9298693.3
9225157.1
9151612.2
9078058.5
9004495.9
8930924.6
8857344.4
8783755.4
8710157.6
8636550.9
8562935.5
8489311.2
8415678
8342036
8268385.2
8194725.5
8121057
8047379.6
7973693.3
7899998.2
7826294.2
7752581.3
7678859.6
7605128.9
7531389.4
7457641
7383883.7
7310117.5
7236342.4
7162558.4
7088765.5
7014963.7
6941153
6867333.3
6793504.7
6719667.2
6645820.8
6571965.4
6498101.1
6424227.8
6350345.6
6276454.4
6202554.3
6128645.2
6054727.2
5980800.2
5906864.2
5832919.3
5758965.3
5685002.4
5611030.5
5537049.6
5463059.7
5389060.8
5315053
5241036.1
5167010.1
5092975.2
5018931.3
4944878.3
4870816.3
4796745.3
4722665.2
4648576.1
4574478
4500370.8
4426254.6
4352129.3
4277994.9
4203851.5
4129699
4055537.5
3981366.9
3907187.2
3832998.4
3758800.5
3684593.5
3610377.5
3536152.3
3461918.1
3387674.7
3313422.2
3239160.6
3164889.9
3090610.1
3016321.1
2942023
2867715.8
2793399.4
2719073.9
2644739.3
2570395.5
2496042.5
2421680.4
2347309.1
2272928.6
2198539
2124140.2
2049732.2
1975315
1900888.7
1826453.1
1752008.4
1677554.5
1603091.3
1528618.9
1454137.5
1379646.5
1305146.7
1230637.2
1156119.2
1081590.8
1007055
932507.17
857954.23
783385.79
708817.64
634225.65
559646.63
485024.41
410444.72
335776.57
261220.82
186469.22
112001.69
37068.225
18424282
18276227
18210386
18127322
18059841
17985424
17915119
17841926
17770244
17697379
17625152
17552438
17479998
17407353
17334821
17262198
17189620
17116999
17044391
16971761
16899132
16826488
16753840
16681180
16608514
16535839
16463156
16390464
16317763
16245054
16172337
16099611
16026877
15954135
15881384
15808624
15735856
15663080
15590295
15517501
15444699
15371889
15299070
15226243
15153407
15080563
15007710
14934848
14861979
14789100
14716213
14643318
14570414
14497502
14424581
14351651
14278713
14205766
14132811
14059848
13986875
13913895
13840905
13767907
13694901
13621886
13548862
13475830
13402789
13329740
13256682
13183615
13110540
13037456
12964364
12891263
12818154
12745035
12671909
12598773
12525629
12452476
12379315
12306145
12232967
12159779
12086583
12013379
11940166
11866944
11793713
11720474
11647226
11573970
11500705
11427431
11354148
11280857
11207557
11134248
11060931
10987605
10914270
10840926
10767574
10694213
10620844
10547465
10474078
10400682
10327278
10253864
10180442
10107011
10033572
9960123.5
9886666.4
9813200.6
9739725.9
9666242.5
9592750.3
9519249.4
9445739.6
9372221.1
9298693.7
9225157.6
9151612.6
9078058.9
9004496.4
8930925
8857344.8
8783755.8
8710158
8636551.4
8562935.9
8489311.6
8415678.5
8342036.5
8268385.6
8194725.9
8121057.4
8047380
7973693.7
7899998.6
7826294.6
7752581.7
7678860
7605129.4
7531389.9
7457641.4
7383884.2
7310118
7236342.9
7162558.9
7088766
7014964.1
6941153.4
6867333.7
6793505.2
6719667.7
6645821.2
6571965.8
6498101.5
6424228.3
6350346
6276454.9
6202554.8
6128645.7
6054727.7
5980800.6
5906864.7
5832919.7
5758965.8
5685002.9
5611031
5537050.1
5463060.2
5389061.3
5315053.4
5241036.5
5167010.6
5092975.7
5018931.7
4944878.8
4870816.8
4796745.7
4722665.7
4648576.6
4574478.5
4500371.3
4426255
4352129.7
4277995.4
4203852
4129699.5
4055537.9
3981367.3
3907187.6
3832998.8
3758801
3684594
3610377.9
3536152.8
3461918.5
3387675.1
3313422.7
3239161.1
3164890.4
3090610.5
3016321.6
2942023.5
2867716.2
2793399.9
2719074.4
2644739.7
2570395.9
2496042.9
2421680.8
2347309.5
2272929.1
2198539.4
2124140.6
2049732.7
1975315.5
1900889.1
1826453.6
1752008.9
1677554.9
1603091.8
1528619.4
1454137.9
1379647
1305147.2
1230637.7
1156119.7
1081591.3
1007055.4
932507.62
857954.67
783386.25
708818.06
634226.14
559647.02
485024.94
410445.04
335777.21
261220.87
186470.16
112000.63
37070.177
18419097
18274809
18209352
18127165
18059735
17985439
17915121
17841940
17770248
17697385
17625153
17552441
17479999
17407354
17334821
17262199
17189620
17116999
17044392
16971762
16899132
16826488
16753840
16681181
16608515
16535839
16463156
16390464
16317764
16245055
16172338
16099612
16026878
15954135
15881384
15808625
15735857
15663080
15590295
15517502
15444700
15371890
15299071
15226243
15153408
15080563
15007710
14934849
14861979
14789101
14716214
14643319
14570415
14497502
14424581
14351652
14278714
14205767
14132812
14059848
13986876
13913895
13840906
13767908
13694901
13621886
13548863
13475831
13402790
13329740
13256682
13183616
13110541
13037457
12964365
12891264
12818154
12745036
12671909
12598774
12525630
12452477
12379316
12306146
12232967
12159780
12086584
12013379
11940166
11866944
11793714
11720475
11647227
11573970
11500705
11427431
11354149
11280857
11207557
11134249
11060931
10987605
10914270
10840927
10767575
10694214
10620844
10547466
10474079
10400683
10327278
10253865
10180443
10107012
10033572
9960124.1
9886667
9813201.1
9739726.4
9666243
9592750.8
9519249.9
9445740.1
9372221.6
9298694.2
9225158.1
9151613.2
9078059.4
9004496.9
8930925.5
8857345.4
8783756.4
8710158.6
8636551.9
8562936.4
8489312.1
8415679
8342037
8268386.2
8194726.5
8121057.9
8047380.5
7973694.3
7899999.1
7826295.1
7752582.3
7678860.5
7605129.9
7531390.4
7457642
7383884.7
7310118.5
7236343.4
7162559.4
7088766.5
7014964.7
6941153.9
6867334.3
6793505.7
6719668.2
6645821.7
6571966.4
6498102
6424228.8
6350346.6
6276455.4
6202555.3
6128646.2
6054728.2
5980801.2
5906865.2
5832920.2
5758966.3
5685003.4
5611031.5
5537050.6
5463060.7
5389061.8
5315053.9
5241037
5167011.1
5092976.2
5018932.3
4944879.3
4870817.3
4796746.3
4722666.2
4648577.1
4574479
4500371.8
4426255.6
4352130.3
4277995.9
4203852.5
4129700
4055538.5
3981367.8
3907188.1
3832999.4
3758801.5
3684594.5
3610378.5
3536153.3
3461919
3387675.7
3313423.2
3239161.6
3164890.9
3090611.1
3016322.1
2942024
2867716.8
2793400.4
2719074.9
2644740.2
2570396.4
2496043.5
2421681.3
2347310.1
2272929.6
2198540
2124141.2
2049733.2
1975316
1900889.7
1826454.1
1752009.4
1677555.4
1603092.3
1528619.9
1454138.4
1379647.5
1305147.7
1230638.2
1156120.2
1081591.8
1007055.9
932508.16
857955.19
783386.79
708818.56
634226.7
559647.49
485025.56
410445.41
335777.96
261220.94
186471.26
111999.42
37072.457
18413042
18273183
18208178
18126989
18059619
17985457
17915125
17841957
17770253
17697391
17625155
17552443
17479999
17407355
17334822
17262200
17189621
17117000
17044392
16971762
16899133
16826489
16753841
16681182
16608516
16535840
16463157
16390465
16317764
16245056
16172338
16099613
16026878
15954136
15881385
15808625
15735857
15663081
15590296
15517502
15444701
15371890
15299071
15226244
15153408
15080564
15007711
14934850
14861980
14789101
14716215
14643319
14570415
14497503
14424582
14351652
14278714
14205768
14132812
14059849
13986877
13913896
13840906
13767909
13694902
13621887
13548863
13475831
13402790
13329741
13256683
13183617
13110541
13037458
12964365
12891264
12818155
12745037
12671910
12598774
12525630
12452478
12379316
12306146
12232968
12159780
12086585
12013380
11940167
11866945
11793714
11720475
11647227
11573971
11500706
11427432
11354149
11280858
11207558
11134249
11060932
10987606
10914271
10840928
10767575
10694214
10620845
10547466
10474079
10400683
10327279
10253865
10180443
10107013
10033573
9960124.7
9886667.6
9813201.7
9739727.1
9666243.6
9592751.5
9519250.5
9445740.7
9372222.2
9298694.8
9225158.7
9151613.8
9078060
9004497.5
8930926.1
8857346
8783757
8710159.2
8636552.5
8562937
8489312.7
8415679.6
8342037.6
8268386.8
8194727.1
8121058.5
8047381.1
7973694.9
7899999.7
7826295.7
7752582.9
7678861.1
7605130.5
7531391
7457642.6
7383885.3
7310119.1
7236344
7162560
7088767.1
7014965.3
6941154.5
6867334.9
6793506.3
6719668.8
6645822.3
6571967
6498102.6
6424229.4
6350347.2
6276456
6202555.9
6128646.8
6054728.8
5980801.8
5906865.8
5832920.8
5758966.9
5685004
5611032.1
5537051.2
5463061.3
5389062.4
5315054.5
5241037.6
5167011.7
5092976.8
5018932.9
4944879.9
4870817.9
4796746.9
4722666.8
4648577.7
4574479.6
4500372.4
4426256.2
4352130.9
4277996.5
4203853.1
4129700.6
4055539.1
3981368.4
3907188.7
3833000
3758802.1
3684595.1
3610379.1
3536153.9
3461919.6
3387676.3
3313423.8
3239162.2
3164891.5
3090611.7
3016322.7
2942024.6
2867717.4
2793401
2719075.5
2644740.8
2570397
2496044.1
2421681.9
2347310.7
2272930.2
2198540.6
2124141.8
2049733.8
1975316.6
1900890.3
1826454.7
1752010
1677556
1603092.9
1528620.5
1454139
1379648.1
1305148.3
1230638.8
1156120.8
1081592.4
1007056.5
932508.77
857955.78
783387.42
708819.14
634227.36
559648.03
485026.27
410445.84
335778.83
261221.03
186472.51
111998.05
37075.069
18406068
18271352
18206869
18126799
18059493
17985480
17915129
17841976
17770259
17697399
17625157
17552446
17480000
17407356
17334822
17262201
17189622
17117001
17044393
16971763
16899134
16826490
16753841
16681182
16608516
16535841
16463157
16390465
16317765
16245056
16172339
16099613
16026879
15954136
15881385
15808626
15735858
15663081
15590297
15517503
15444701
15371891
15299072
15226245
15153409
15080564
15007712
14934850
14861980
14789102
14716215
14643320
14570416
14497503
14424582
14351653
14278715
14205768
14132813
14059849
13986877
13913896
13840907
13767909
13694903
13621888
13548864
13475832
13402791
13329742
13256684
13183617
13110542
13037458
12964366
12891265
12818155
12745037
12671910
12598775
12525631
12452478
12379317
12306147
12232968
12159781
12086585
12013381
11940168
11866946
11793715
11720476
11647228
11573972
11500706
11427432
11354150
11280859
11207559
11134250
11060933
10987607
10914272
10840928
10767576
10694215
10620845
10547467
10474080
10400684
10327280
10253866
10180444
10107013
10033574
9960125.4
9886668.2
9813202.4
9739727.7
9666244.3
9592752.1
9519251.2
9445741.4
9372222.9
9298695.5
9225159.4
9151614.5
9078060.7
9004498.2
8930926.8
8857346.7
8783757.7
8710159.8
8636553.2
8562937.7
8489313.4
8415680.3
8342038.3
8268387.4
8194727.8
8121059.2
8047381.8
7973695.6
7900000.4
7826296.4
7752583.6
7678861.8
7605131.2
7531391.7
7457643.3
7383886
7310119.8
7236344.7
7162560.7
7088767.8
7014966
6941155.2
6867335.6
6793507
6719669.5
6645823
6571967.7
6498103.3
6424230.1
6350347.9
6276456.7
6202556.6
6128647.5
6054729.5
5980802.5
5906866.5
5832921.5
5758967.6
5685004.7
5611032.8
5537051.9
5463062
5389063.1
5315055.2
5241038.3
5167012.4
5092977.5
5018933.6
4944880.6
4870818.6
4796747.6
4722667.5
4648578.4
4574480.3
4500373.1
4426256.9
4352131.6
4277997.2
4203853.8
4129701.3
4055539.8
3981369.1
3907189.4
3833000.6
3758802.8
3684595.8
3610379.8
3536154.6
3461920.3
3387677
3313424.5
3239162.9
3164892.2
3090612.4
3016323.4
2942025.3
2867718.1
2793401.7
2719076.2
2644741.5
2570397.7
2496044.8
2421682.6
2347311.4
2272930.9
2198541.3
2124142.5
2049734.5
1975317.3
1900891
1826455.4
1752010.7
1677556.7
1603093.6
1528621.2
1454139.7
1379648.8
1305149
1230639.5
1156121.5
1081593.1
1007057.2
932509.47
857956.46
783388.14
708819.8
634228.1
559648.64
485027.09
410446.33
335779.8
261221.14
186473.93
111996.53
37078.019
18398121
18269319
18205433
18126596
18059360
17985507
17915135
17841997
17770265
17697407
17625159
17552448
17480001
17407357
17334823
17262202
17189622
17117002
17044394
16971764
16899134
16826491
16753842
16681183
16608517
16535842
16463158
16390466
16317766
16245057
16172340
16099614
16026880
15954137
15881386
15808627
15735859
15663082
15590297
15517504
15444702
15371892
15299073
15226245
15153410
15080565
15007712
14934851
14861981
14789103
14716216
14643321
14570417
14497504
14424583
14351654
14278716
14205769
14132814
14059850
13986878
13913897
13840908
13767910
13694904
13621888
13548865
13475833
13402792
13329742
13256685
13183618
13110543
13037459
12964367
12891266
12818156
12745038
12671911
12598776
12525632
12452479
12379318
12306148
12232969
12159782
12086586
12013381
11940168
11866946
11793716
11720477
11647229
11573972
11500707
11427433
11354151
11280859
11207559
11134251
11060933
10987607
10914273
10840929
10767577
10694216
10620846
10547468
10474081
10400685
10327280
10253867
10180445
10107014
10033574
9960126.1
9886669
9813203.2
9739728.5
9666245.1
9592752.9
9519251.9
9445742.2
9372223.6
9298696.3
9225160.2
9151615.2
9078061.5
9004499
8930927.6
8857347.4
8783758.4
8710160.6
8636554
8562938.5
8489314.2
8415681.1
8342039.1
8268388.2
8194728.5
8121060
8047382.6
7973696.3
7900001.2
7826297.2
7752584.3
7678862.6
7605132
7531392.4
7457644
7383886.7
7310120.6
7236345.5
7162561.5
7088768.6
7014966.7
6941156
6867336.3
6793507.8
6719670.3
6645823.8
6571968.4
6498104.1
6424230.9
6350348.6
6276457.5
6202557.4
6128648.3
6054730.3
5980803.2
5906867.3
5832922.3
5758968.4
5685005.5
5611033.6
5537052.7
5463062.8
5389063.9
5315056
5241039.1
5167013.2
5092978.3
5018934.3
4944881.4
4870819.4
4796748.3
4722668.3
4648579.2
4574481.1
4500373.9
4426257.6
4352132.3
4277998
4203854.6
4129702.1
4055540.5
3981369.9
3907190.2
3833001.4
3758803.6
3684596.6
3610380.5
3536155.4
3461921.1
3387677.7
3313425.3
3239163.7
3164893
3090613.1
3016324.2
2942026.1
2867718.8
2793402.5
2719077
2644742.3
2570398.5
2496045.5
2421683.4
2347312.1
2272931.7
2198542
2124143.2
2049735.3
1975318.1
1900891.7
1826456.2
1752011.5
1677557.5
1603094.4
1528622
1454140.5
1379649.6
1305149.8
1230640.3
1156122.2
1081593.9
1007058
932510.26
857957.22
783388.94
708820.54
634228.94
559649.33
485028
410446.89
335780.9
261221.28
186475.51
111994.86
37081.308
18389139
18267091
18203879
18126385
18059223
17985539
17915143
17842021
17770272
17697416
17625161
17552452
17480002
17407359
17334824
17262203
17189623
17117002
17044395
16971765
16899135
16826491
16753843
16681184
16608518
16535842
16463159
16390467
16317767
16245058
16172341
16099615
16026881
15954138
15881387
15808628
15735860
15663083
15590298
15517505
15444703
15371892
15299074
15226246
15153410
15080566
15007713
14934852
14861982
14789104
14716217
14643321
14570418
14497505
14424584
14351655
14278717
14205770
14132815
14059851
13986879
13913898
13840909
13767911
13694904
13621889
13548866
13475833
13402793
13329743
13256685
13183619
13110544
13037460
12964368
12891267
12818157
12745039
12671912
12598777
12525633
12452480
12379319
12306149
12232970
12159783
12086587
12013382
11940169
11866947
11793717
11720478
11647230
11573973
11500708
11427434
11354151
11280860
11207560
11134252
11060934
10987608
10914273
10840930
10767578
10694217
10620847
10547469
10474082
10400686
10327281
10253868
10180446
10107015
10033575
9960127
9886669.9
9813204
9739729.4
9666246
9592753.8
9519252.8
9445743.1
9372224.5
9298697.2
9225161
9151616.1
9078062.4
9004499.8
8930928.5
8857348.3
8783759.3
8710161.5
8636554.8
8562939.4
8489315.1
8415681.9
8342039.9
8268389.1
8194729.4
8121060.9
8047383.5
7973697.2
7900002.1
7826298.1
7752585.2
7678863.5
7605132.8
7531393.3
7457644.9
7383887.6
7310121.4
7236346.3
7162562.3
7088769.4
7014967.6
6941156.9
6867337.2
6793508.6
6719671.1
6645824.7
6571969.3
6498105
6424231.7
6350349.5
6276458.3
6202558.2
6128649.2
6054731.1
5980804.1
5906868.1
5832923.2
5758969.2
5685006.3
5611034.4
5537053.5
5463063.6
5389064.8
5315056.9
5241040
5167014.1
5092979.1
5018935.2
4944882.2
4870820.2
4796749.2
4722669.1
4648580.1
4574481.9
4500374.7
4426258.5
4352133.2
4277998.8
4203855.4
4129703
4055541.4
3981370.8
3907191.1
3833002.3
3758804.4
3684597.5
3610381.4
3536156.2
3461922
3387678.6
3313426.1
3239164.5
3164893.8
3090614
3016325
2942026.9
2867719.7
2793403.3
2719077.8
2644743.2
2570399.4
2496046.4
2421684.3
2347313
2272932.5
2198542.9
2124144.1
2049736.1
1975319
1900892.6
1826457.1
1752012.3
1677558.4
1603095.3
1528622.9
1454141.4
1379650.5
1305150.6
1230641.1
1156123.1
1081594.8
1007058.8
932511.14
857958.07
783389.83
708821.36
634229.86
559650.1
485029.01
410447.52
335782.11
261221.45
186477.24
111993.07
37084.939
18379050
18264676
18202220
18126170
18059085
17985577
17915154
17842048
17770281
17697425
17625164
17552455
17480003
17407361
17334824
17262204
17189624
17117004
17044396
16971766
16899136
16826492
16753844
16681185
16608519
16535843
16463160
16390468
16317768
16245059
16172342
16099616
16026882
15954139
15881388
15808628
15735860
15663084
15590299
15517506
15444704
15371893
15299075
15226247
15153411
15080567
15007714
14934853
14861983
14789105
14716218
14643322
14570418
14497506
14424585
14351656
14278717
14205771
14132816
14059852
13986880
13913899
13840910
13767912
13694905
13621890
13548867
13475834
13402794
13329744
13256686
13183620
13110545
13037461
12964369
12891268
12818158
12745040
12671913
12598778
12525634
12452481
12379320
12306150
12232971
12159784
12086588
12013383
11940170
11866948
11793718
11720479
11647231
11573974
11500709
11427435
11354152
11280861
11207561
11134253
11060935
10987609
10914274
10840931
10767579
10694218
10620848
10547470