/*--------------------------------*- C++ -*----------------------------------*\
  =========                 |
  \\      /  F ield         | OpenFOAM: The Open Source CFD Toolbox
   \\    /   O peration     | Website:  https://openfoam.org
    \\  /    A nd           | Version:  6
     \\/     M anipulation  |
\*---------------------------------------------------------------------------*/
FoamFile
{
    version     2.0;
    format      ascii;
    class       volVectorField;
    location    "10000";
    object      U;
}
// * * * * * * * * * * * * * * * * * * * * * * * * * * * * * * * * * * * * * //

dimensions      [0 1 -1 0 0 0 0];

internalField   nonuniform List<vector> 
6250
(
(1.4147887 -4.4224016e-21 0.0074288951)
(1.2574567 -4.3935558e-21 0.0071005425)
(1.1048412 -4.3766543e-21 0.005246365)
(1.0267876 0 0.0028559613)
(0.97981145 0 0.0015394252)
(0.95909867 -4.3192725e-21 0.00072963869)
(0.94786636 0 0.00035443979)
(0.9434908 0 0.0001573233)
(0.94098741 0 7.6624635e-05)
(0.9401063 0 3.5960718e-05)
(0.9394195 -4.228563e-21 2.2208959e-05)
(0.93912244 0 1.4726883e-05)
(0.93877719 0 1.319326e-05)
(0.93853908 0 1.1880229e-05)
(0.9382569 4.1556047e-21 1.1981431e-05)
(0.9380107 0 1.1716056e-05)
(0.93774239 0 1.1861377e-05)
(0.9374882 0 1.1780331e-05)
(0.93722433 0 1.1848142e-05)
(0.93696641 0 1.1812293e-05)
(0.93670443 0 1.1837769e-05)
(0.93644501 0 1.1819289e-05)
(0.93618391 -4.0099424e-21 1.1827146e-05)
(0.93592394 3.991757e-21 1.1816659e-05)
(0.93566327 0 1.1817534e-05)
(0.9354031 0 1.1810738e-05)
(0.93514266 0 1.1808815e-05)
(0.93488245 -3.9190655e-21 1.1803665e-05)
(0.93462214 0 1.1800597e-05)
(0.93436196 0 1.1796164e-05)
(0.93410175 0 1.1792619e-05)
(0.93384161 0 1.1788496e-05)
(0.93358148 0 1.1784751e-05)
(0.9333214 0 1.178076e-05)
(0.93306134 0 1.1776931e-05)
(0.93280133 0 1.1772998e-05)
(0.93254134 0 1.1769134e-05)
(0.93228139 -3.7376799e-21 1.1765226e-05)
(0.93202147 0 1.1761348e-05)
(0.93176158 0 1.1757451e-05)
(0.93150173 -3.6833599e-21 1.1753565e-05)
(0.93124192 0 1.1749674e-05)
(0.93098213 -3.6471712e-21 1.174579e-05)
(0.93072238 0 1.1741903e-05)
(0.93046266 -3.6110021e-21 1.1738016e-05)
(0.93020298 -3.5929249e-21 1.1734131e-05)
(0.92994333 0 1.1730249e-05)
(0.92968371 3.5567853e-21 1.1726363e-05)
(0.92942413 0 1.172248e-05)
(0.92916458 -3.5206654e-21 1.1718597e-05)
(0.92890507 0 1.1714717e-05)
(0.92864558 0 1.1710832e-05)
(0.92838613 -3.4665223e-21 1.1706951e-05)
(0.92812672 0 1.1703074e-05)
(0.92786734 0 1.1699195e-05)
(0.92760799 -3.4124235e-21 1.1695317e-05)
(0.92734868 0 1.1691439e-05)
(0.92708939 3.3763822e-21 1.1687565e-05)
(0.92683015 0 1.1683686e-05)
(0.92657093 -3.3403606e-21 1.1679811e-05)
(0.92631175 -3.3223571e-21 1.1675936e-05)
(0.92605261 0 1.1672064e-05)
(0.92579349 -3.286365e-21 1.1668188e-05)
(0.92553441 0 1.1664315e-05)
(0.92527537 0 1.1660444e-05)
(0.92501635 -3.2324138e-21 1.1656572e-05)
(0.92475737 3.2144399e-21 1.16527e-05)
(0.92449843 -3.1964709e-21 1.164883e-05)
(0.92423952 0 1.1644961e-05)
(0.92398064 0 1.1641093e-05)
(0.92372179 -3.1425935e-21 1.1637224e-05)
(0.92346298 0 1.1633357e-05)
(0.9232042 -3.1066999e-21 1.1629491e-05)
(0.92294546 0 1.1625625e-05)
(0.92268675 0 1.1621759e-05)
(0.92242807 3.0528963e-21 1.1617895e-05)
(0.92216943 0 1.1614029e-05)
(0.92191082 0 1.1610167e-05)
(0.92165224 0 1.1606303e-05)
(0.9213937 0 1.1602443e-05)
(0.92113519 0 1.1598581e-05)
(0.92087671 0 1.1594722e-05)
(0.92061827 2.9275271e-21 1.1590862e-05)
(0.92035986 0 1.1587001e-05)
(0.92010148 0 1.1583143e-05)
(0.91984314 0 1.1579286e-05)
(0.91958483 -2.855996e-21 1.1575428e-05)
(0.91932655 2.8381256e-21 1.1571571e-05)
(0.91906831 0 1.1567714e-05)
(0.9188101 0 1.1563861e-05)
(0.91855193 0 1.1560007e-05)
(0.91829379 0 1.1556152e-05)
(0.91803568 2.7488473e-21 1.1552299e-05)
(0.9177776 0 1.1548449e-05)
(0.91751956 0 1.1544595e-05)
(0.91726155 -2.6953395e-21 1.1540744e-05)
(0.91700358 0 1.1536893e-05)
(0.91674564 2.6596923e-21 1.1533046e-05)
(0.91648773 0 1.1529194e-05)
(0.91622986 0 1.1525346e-05)
(0.91597202 0 1.15215e-05)
(0.91571421 0 1.1517653e-05)
(0.91545644 2.5706607e-21 1.1513805e-05)
(0.9151987 0 1.150996e-05)
(0.91494099 -2.5350826e-21 1.1506116e-05)
(0.91468332 0 1.1502273e-05)
(0.91442568 0 1.1498428e-05)
(0.91416807 2.4817525e-21 1.1494585e-05)
(0.9139105 0 1.1490744e-05)
(0.91365296 0 1.1486903e-05)
(0.91339546 0 1.148306e-05)
(0.91313798 0 1.1479221e-05)
(0.91288055 2.3929678e-21 1.1475381e-05)
(0.91262314 0 1.1471542e-05)
(0.91236577 0 1.1467704e-05)
(0.91210843 0 1.1463868e-05)
(0.91185113 0 1.146003e-05)
(0.91159385 2.3043066e-21 1.1456196e-05)
(0.91133662 0 1.145236e-05)
(0.91107941 0 1.1448524e-05)
(0.91082224 0 1.1444689e-05)
(0.9105651 0 1.1440857e-05)
(0.910308 0 1.1437025e-05)
(0.91005093 0 1.1433192e-05)
(0.90979389 0 1.142936e-05)
(0.90953689 0 1.1425531e-05)
(0.90927991 0 1.1421702e-05)
(0.90902298 2.127355e-21 1.1417871e-05)
(0.90876607 0 1.1414043e-05)
(0.9085092 0 1.1410218e-05)
(0.90825237 0 1.1406388e-05)
(0.90799556 0 1.1402561e-05)
(0.90773879 2.0390647e-21 1.1398735e-05)
(0.90748206 0 1.1394912e-05)
(0.90722535 0 1.1391085e-05)
(0.90696868 0 1.1387262e-05)
(0.90671205 0 1.138344e-05)
(0.90645544 1.9508982e-21 1.1379618e-05)
(0.90619887 0 1.1375794e-05)
(0.90594234 0 1.1371974e-05)
(0.90568584 0 1.1368154e-05)
(0.90542937 0 1.1364335e-05)
(0.90517293 1.8628554e-21 1.1360512e-05)
(0.90491653 0 1.1356694e-05)
(0.90466016 0 1.135288e-05)
(0.90440382 0 1.1349061e-05)
(0.90414752 0 1.1345245e-05)
(0.90389125 1.7749365e-21 1.1341431e-05)
(0.90363502 0 1.1337616e-05)
(0.90337881 0 1.13338e-05)
(0.90312265 0 1.1329987e-05)
(0.90286651 0 1.1326176e-05)
(0.90261041 1.6871414e-21 1.1322364e-05)
(0.90235434 0 1.1318551e-05)
(0.9020983 0 1.1314741e-05)
(0.9018423 0 1.1310929e-05)
(0.90158633 0 1.130712e-05)
(0.9013304 1.5994703e-21 1.1303311e-05)
(0.9010745 0 1.1299504e-05)
(0.90081863 0 1.1295696e-05)
(0.90056279 1.5469272e-21 1.129189e-05)
(0.90030699 0 1.1288083e-05)
(0.90005122 1.5119232e-21 1.1284279e-05)
(0.89979549 0 1.1280473e-05)
(0.89953979 1.4769391e-21 1.127667e-05)
(0.89928412 1.4594545e-21 1.1272867e-05)
(0.89902848 0 1.1269062e-05)
(0.89877288 1.4245001e-21 1.126526e-05)
(0.89851732 1.4070304e-21 1.126146e-05)
(0.89826178 1.3895657e-21 1.125766e-05)
(0.89800628 1.3721059e-21 1.1253859e-05)
(0.89775081 0 1.1250059e-05)
(0.89749538 1.3372012e-21 1.1246263e-05)
(0.89723998 0 1.1242463e-05)
(0.89698461 1.3023164e-21 1.1238666e-05)
(0.89672927 1.2848814e-21 1.123487e-05)
(0.89647397 0 1.1231076e-05)
(0.8962187 1.2500264e-21 1.1227278e-05)
(0.89596347 -1.2326063e-21 1.1223483e-05)
(0.89570827 1.2151912e-21 1.1219689e-05)
(0.8954531 1.1977811e-21 1.1215898e-05)
(0.89519797 0 1.1212104e-05)
(0.89494287 1.1629758e-21 1.1208312e-05)
(0.8946878 0 1.1204522e-05)
(0.89443276 1.1281904e-21 1.1200731e-05)
(0.89417776 1.1108051e-21 1.1196941e-05)
(0.89392279 0 1.1193152e-05)
(0.89366786 0 1.1189365e-05)
(0.89341296 0 1.1185576e-05)
(0.89315809 1.0413137e-21 1.1181788e-05)
(0.89290326 1.0239533e-21 1.1178003e-05)
(0.89264846 0 1.1174216e-05)
(0.89239369 9.8924745e-22 1.1170431e-05)
(0.89213895 0 1.1166646e-05)
(0.89188425 9.5456147e-22 1.1162864e-05)
(0.89162958 9.3722594e-22 1.115908e-05)
(0.89137495 9.1989538e-22 1.1155298e-05)
(0.89112035 9.0256981e-22 1.1151517e-05)
(0.89086578 0 1.1147737e-05)
(0.89061125 8.6793358e-22 1.1143955e-05)
(0.89035674 8.5062294e-22 1.1140177e-05)
(0.89010228 0 1.1136398e-05)
(0.88984784 8.1601658e-22 1.1132617e-05)
(0.88959344 0 1.1128839e-05)
(0.88933907 7.8143014e-22 1.1125064e-05)
(0.88908474 0 1.1121288e-05)
(0.88883044 0 1.1117512e-05)
(0.88857617 7.2958783e-22 1.1113738e-05)
(0.88832193 0 1.1109965e-05)
(0.88806773 6.950512e-22 1.1106189e-05)
(0.88781356 6.7779036e-22 1.1102416e-05)
(0.88755943 0 1.1098644e-05)
(0.88730533 6.4328362e-22 1.1094875e-05)
(0.88705126 0 1.1091101e-05)
(0.88679722 0 1.1087331e-05)
(0.88654322 5.9156088e-22 1.1083561e-05)
(0.88628925 0 1.1079797e-05)
(0.88603532 5.5710398e-22 1.1076024e-05)
(0.88578142 0 1.1072259e-05)
(0.88552755 0 1.106849e-05)
(0.88527371 5.0545602e-22 1.1064731e-05)
(0.88501991 0 1.1060952e-05)
(0.88476614 4.7104898e-22 1.1057206e-05)
(0.8845124 4.5385294e-22 1.1053415e-05)
(0.8842587 0 1.1049694e-05)
(0.88400503 4.1947583e-22 1.1045866e-05)
(0.8837514 0 1.1042203e-05)
(0.88349779 3.8511868e-22 1.1038289e-05)
(0.88324424 0 1.1034759e-05)
(0.88299068 0 1.1030647e-05)
(0.88273721 3.3362038e-22 1.1027423e-05)
(0.88248369 0 1.102285e-05)
(0.88223033 0 1.1020333e-05)
(0.88197681 0 1.1014681e-05)
(0.88172362 2.650259e-22 1.1013817e-05)
(0.88147 2.4788959e-22 1.1005659e-05)
(0.88121713 0 1.1008656e-05)
(0.8809632 2.1363213e-22 1.0994733e-05)
(0.88071097 0 1.1006875e-05)
(0.88045621 0 1.0979907e-05)
(0.88020536 1.6228465e-22 1.1014223e-05)
(0.87994854 1.451764e-22 1.0958681e-05)
(0.87970072 1.2807835e-22 1.1048836e-05)
(0.87943876 0 1.0933026e-05)
(0.8791975 9.3893482e-23 1.1169392e-05)
(0.8789225 7.6796078e-23 1.091908e-05)
(0.87869581 0 1.1538318e-05)
(0.87838731 4.2629534e-23 1.0819026e-05)
(0.87820124 0 1.2306002e-05)
(0.87781194 0 8.6647185e-06)
(1.4106577 2.3900901e-20 0.022313842)
(1.2536544 7.9302034e-21 0.021358448)
(1.101681 2.3698887e-20 0.015746609)
(1.0239733 0 0.008582063)
(0.97722197 1.5660244e-20 0.0046207222)
(0.95660514 7.7961717e-21 0.0021929357)
(0.9454221 -1.5528374e-20 0.001063831)
(0.94106566 -1.5461854e-20 0.00047317673)
(0.93857155 0 0.00022992222)
(0.93769382 1.5330568e-20 0.000108311)
(0.93700898 -7.6325006e-21 6.6645337e-05)
(0.93671281 0 4.4390312e-05)
(0.93636841 0 3.9633723e-05)
(0.93613093 0 3.5782847e-05)
(0.93584946 -7.5008572e-21 3.6024067e-05)
(0.93560391 0 3.5266701e-05)
(0.93533629 0 3.567683e-05)
(0.93508277 0 3.5450312e-05)
(0.93481959 0 3.5642864e-05)
(0.93456236 0 3.5542365e-05)
(0.93430106 0 3.5614172e-05)
(0.93404234 0 3.55617e-05)
(0.93378193 2.1714072e-20 3.5583293e-05)
(0.93352263 -7.2052098e-21 3.5553069e-05)
(0.93326265 0 3.5554837e-05)
(0.93300317 0 3.5534955e-05)
(0.93274342 0 3.5528804e-05)
(0.93248389 2.1222127e-20 3.5513549e-05)
(0.93222428 1.4082545e-20 3.5504165e-05)
(0.93196477 0 3.5490932e-05)
(0.93170525 0 3.5480203e-05)
(0.9314458 0 3.5467843e-05)
(0.93118636 1.382056e-20 3.5456549e-05)
(0.93092696 0 3.5444561e-05)
(0.93066759 0 3.5433033e-05)
(0.93040826 0 3.5421206e-05)
(0.93014896 0 3.5409581e-05)
(0.92988969 6.7467363e-21 3.5397826e-05)
(0.92963046 0 3.5386158e-05)
(0.92937126 0 3.5374437e-05)
(0.92911209 6.6487154e-21 3.5362748e-05)
(0.92885296 0 3.5351043e-05)
(0.92859386 6.5834119e-21 3.5339359e-05)
(0.9283348 0 3.5327664e-05)
(0.92807576 1.9554431e-20 3.5315973e-05)
(0.92781677 6.4855225e-21 3.5304286e-05)
(0.9275578 0 3.5292609e-05)
(0.92729887 6.4203068e-21 3.5280918e-05)
(0.92703997 -1.2775424e-20 3.5269236e-05)
(0.92678111 1.9065378e-20 3.5257555e-05)
(0.92652227 0 3.5245885e-05)
(0.92626348 -1.2579961e-20 3.5234197e-05)
(0.92600471 1.8772262e-20 3.5222524e-05)
(0.92574598 0 3.521086e-05)
(0.92548728 0 3.5199192e-05)
(0.92522862 1.8479384e-20 3.5187526e-05)
(0.92496999 -1.225454e-20 3.5175859e-05)
(0.92471139 -6.0947543e-21 3.5164205e-05)
(0.92445283 0 3.5152537e-05)
(0.9241943 6.0297491e-21 3.514088e-05)
(0.9239358 1.7991779e-20 3.5129223e-05)
(0.92367734 0 3.5117578e-05)
(0.92341891 5.9323072e-21 3.5105916e-05)
(0.92316051 0 3.5094266e-05)
(0.92290215 0 3.508262e-05)
(0.92264382 5.8349444e-21 3.5070973e-05)
(0.92238552 -5.8025077e-21 3.5059324e-05)
(0.92212726 5.7700798e-21 3.5047684e-05)
(0.92186903 0 3.5036046e-05)
(0.92161083 0 3.502441e-05)
(0.92135267 5.6728488e-21 3.5012771e-05)
(0.92109454 0 3.5001138e-05)
(0.92083645 1.6824216e-20 3.4989509e-05)
(0.92057838 -1.1151394e-20 3.497788e-05)
(0.92032036 0 3.4966248e-05)
(0.92006236 5.510973e-21 3.4954624e-05)
(0.9198044 -1.0957248e-20 3.4942997e-05)
(0.91954647 1.0892568e-20 3.4931378e-05)
(0.91928857 0 3.4919755e-05)
(0.91903071 0 3.4908143e-05)
(0.91877288 0 3.4896523e-05)
(0.91851509 0 3.4884916e-05)
(0.91825733 -1.5854148e-20 3.4873304e-05)
(0.9179996 0 3.486169e-05)
(0.91774191 0 3.4850084e-05)
(0.91748424 0 3.4838481e-05)
(0.91722662 5.15562e-21 3.4826877e-05)
(0.91696902 -5.123368e-21 3.4815273e-05)
(0.91671146 0 3.4803672e-05)
(0.91645393 0 3.479208e-05)
(0.91619644 0 3.4780486e-05)
(0.91593898 0 3.476889e-05)
(0.91568155 -4.9622401e-21 3.47573e-05)
(0.91542416 0 3.4745719e-05)
(0.9151668 0 3.4734125e-05)
(0.91490947 4.865669e-21 3.472254e-05)
(0.91465218 0 3.4710956e-05)
(0.91439491 -1.4403997e-20 3.4699383e-05)
(0.91413769 0 3.4687796e-05)
(0.91388049 0 3.4676221e-05)
(0.91362333 0 3.4664649e-05)
(0.91336621 0 3.4653077e-05)
(0.91310911 -1.3921935e-20 3.4641502e-05)
(0.91285205 0 3.4629936e-05)
(0.91259503 4.5764316e-21 3.4618373e-05)
(0.91233803 0 3.4606811e-05)
(0.91208107 0 3.4595243e-05)
(0.91182415 4.4801779e-21 3.4583685e-05)
(0.91156725 0 3.4572129e-05)
(0.91131039 0 3.4560575e-05)
(0.91105357 0 3.4549015e-05)
(0.91079677 0 3.4537466e-05)
(0.91054001 -4.3199313e-21 3.4525914e-05)
(0.91028329 0 3.4514367e-05)
(0.91002659 0 3.450282e-05)
(0.90976993 0 3.4491282e-05)
(0.90951331 0 3.4479737e-05)
(0.90925671 -4.1599053e-21 3.4468202e-05)
(0.90900015 0 3.4456664e-05)
(0.90874363 0 3.4445123e-05)
(0.90848713 0 3.4433588e-05)
(0.90823067 0 3.4422061e-05)
(0.90797425 8.0002002e-21 3.4410531e-05)
(0.90771786 0 3.4399002e-05)
(0.9074615 0 3.4387474e-05)
(0.90720517 0 3.4375956e-05)
(0.90694888 0 3.4364437e-05)
(0.90669262 -1.1521547e-20 3.4352915e-05)
(0.90643639 0 3.4341398e-05)
(0.9061802 -7.5534875e-21 3.4329891e-05)
(0.90592404 0 3.431837e-05)
(0.90566791 0 3.4306858e-05)
(0.90541182 -1.1043456e-20 3.4295348e-05)
(0.90515576 0 3.4283849e-05)
(0.90489973 0 3.4272337e-05)
(0.90464374 0 3.4260835e-05)
(0.90438778 0 3.4249337e-05)
(0.90413185 -3.5220096e-21 3.4237839e-05)
(0.90387596 0 3.4226338e-05)
(0.9036201 0 3.4214846e-05)
(0.90336428 0 3.4203354e-05)
(0.90310848 0 3.4191865e-05)
(0.90285272 -3.3630882e-21 3.4180365e-05)
(0.902597 0 3.4168879e-05)
(0.9023413 0 3.4157408e-05)
(0.90208564 0 3.4145917e-05)
(0.90183002 0 3.413444e-05)
(0.90157442 -9.6131643e-21 3.4122965e-05)
(0.90131886 0 3.4111489e-05)
(0.90106334 0 3.4100011e-05)
(0.90080784 0 3.4088541e-05)
(0.90055238 0 3.4077075e-05)
(0.90029696 -9.1377278e-21 3.4065609e-05)
(0.90004156 0 3.4054139e-05)
(0.8997862 0 3.4042677e-05)
(0.89953088 0 3.4031211e-05)
(0.89927558 0 3.4019753e-05)
(0.89902032 -8.6629555e-21 3.4008293e-05)
(0.8987651 0 3.399684e-05)
(0.8985099 0 3.3985383e-05)
(0.89825474 -8.3784112e-21 3.3973935e-05)
(0.89799962 0 3.3962484e-05)
(0.89774452 -2.7296159e-21 3.3951042e-05)
(0.89748946 0 3.3939593e-05)
(0.89723443 -7.999391e-21 3.3928153e-05)
(0.89697944 -2.6349008e-21 3.3916711e-05)
(0.89672448 0 3.3905266e-05)
(0.89646955 -2.5718017e-21 3.3893828e-05)
(0.89621466 -2.5402654e-21 3.3882396e-05)
(0.8959598 -7.5262143e-21 3.3870964e-05)
(0.89570497 -2.4772196e-21 3.385953e-05)
(0.89545017 0 3.3848101e-05)
(0.89519541 2.4142093e-21 3.3836681e-05)
(0.89494069 4.7654347e-21 3.3825248e-05)
(0.89468599 -7.0537029e-21 3.3813827e-05)
(0.89443133 -6.9592805e-21 3.3802407e-05)
(0.8941767 4.5765898e-21 3.3790994e-05)
(0.89392211 -6.7705156e-21 3.377957e-05)
(0.89366755 2.225391e-21 3.3768153e-05)
(0.89341302 -2.1939524e-21 3.3756741e-05)
(0.89315852 -6.487568e-21 3.3745338e-05)
(0.89290406 4.2622036e-21 3.3733922e-05)
(0.89264963 -6.2990694e-21 3.3722516e-05)
(0.89239524 0 3.3711116e-05)
(0.89214088 -2.0368924e-21 3.3699712e-05)
(0.89188655 -6.0165214e-21 3.3688309e-05)
(0.89163225 0 3.3676911e-05)
(0.89137799 0 3.3665519e-05)
(0.89112376 0 3.3654123e-05)
(0.89086956 -5.640164e-21 3.3642727e-05)
(0.8906154 -1.8487137e-21 3.363134e-05)
(0.89036127 0 3.3619947e-05)
(0.89010718 -1.7860586e-21 3.3608563e-05)
(0.88985311 0 3.3597177e-05)
(0.88959908 1.7234391e-21 3.3585799e-05)
(0.88934509 -1.6921425e-21 3.3574415e-05)
(0.88909112 -1.660855e-21 3.356304e-05)
(0.88883719 -4.8887291e-21 3.3551664e-05)
(0.8885833 3.1966132e-21 3.3540294e-05)
(0.88832943 -4.7011371e-21 3.3528917e-05)
(0.8880756 -4.6073812e-21 3.351755e-05)
(0.88782181 -3.0091013e-21 3.3506182e-05)
(0.88756804 -4.4199494e-21 3.3494811e-05)
(0.88731431 0 3.3483445e-05)
(0.88706062 -1.4108748e-21 3.3472089e-05)
(0.88680695 -2.7593346e-21 3.346073e-05)
(0.88655332 2.6969375e-21 3.344937e-05)
(0.88629972 -3.9518371e-21 3.3438016e-05)
(0.88604616 0 3.3426669e-05)
(0.88579263 -1.2549264e-21 3.3415309e-05)
(0.88553913 -3.6712902e-21 3.340396e-05)
(0.88528566 0 3.3392611e-05)
(0.88503223 -1.1614642e-21 3.3381273e-05)
(0.88477883 0 3.336992e-05)
(0.88452547 0 3.335858e-05)
(0.88427214 -1.0680821e-21 3.3347238e-05)
(0.88401884 0 3.3335914e-05)
(0.88376557 -1.005872e-21 3.3324566e-05)
(0.88351234 0 3.3313241e-05)
(0.88325914 0 3.3301901e-05)
(0.88300597 -9.1262363e-22 3.3290594e-05)
(0.88275284 0 3.3279228e-05)
(0.88249974 8.5050272e-22 3.3267956e-05)
(0.88224667 8.1945559e-22 3.3256557e-05)
(0.88199364 0 3.3245355e-05)
(0.88174064 -2.272164e-21 3.3233849e-05)
(0.88148768 1.4527353e-21 3.3222814e-05)
(0.88123474 -2.0860685e-21 3.3211067e-05)
(0.88098185 0 3.3200407e-05)
(0.88072896 0 3.3188098e-05)
(0.88047616 6.0237541e-22 3.3178305e-05)
(0.88022331 1.1427991e-21 3.3164695e-05)
(0.87997062 -1.0808655e-21 3.3156903e-05)
(0.87971776 0 3.3140234e-05)
(0.87946525 -4.7852586e-22 3.3137125e-05)
(0.87921229 -1.3427566e-21 3.3113362e-05)
(0.87896009 0 3.312119e-05)
(0.87870683 -3.8573188e-22 3.3081116e-05)
(0.87845526 0 3.3114882e-05)
(0.87820117 0 3.3037961e-05)
(0.87795099 -2.9302068e-22 3.313477e-05)
(0.87769484 -2.6213046e-22 3.2977454e-05)
(0.87744768 -2.3125855e-22 3.3233687e-05)
(0.8771864 0 3.2908013e-05)
(0.8769458 1.6953475e-22 3.3583916e-05)
(0.87667151 -1.3866377e-22 3.2884174e-05)
(0.87644546 0 3.466296e-05)
(0.87613777 -2.309181e-22 3.2628494e-05)
(0.87595224 9.2450352e-23 3.6888781e-05)
(0.87556405 0 2.6258637e-05)
(1.4023119 -1.6052044e-20 0.037274442)
(1.2459707 -3.195747e-20 0.035688475)
(1.0952916 -1.5917621e-20 0.026242108)
(1.0182846 -3.167957e-20 0.014317229)
(0.97198488 -4.7332865e-20 0.0076994971)
(0.95156179 0 0.0036591332)
(0.94047771 -1.5644788e-20 0.0017728375)
(0.93615992 1.5577772e-20 0.00079029553)
(0.93368441 -3.1024312e-20 0.00038320393)
(0.93281356 -4.6336513e-20 0.00018126832)
(0.93213264 1.5379446e-20 0.00011117685)
(0.9318383 0 7.4417329e-05)
(0.93149558 0 6.6232057e-05)
(0.93125941 -3.036084e-20 5.9961507e-05)
(0.93097935 3.0228376e-20 6.0258736e-05)
(0.93073513 0 5.9060783e-05)
(0.93046892 -2.9963354e-20 5.9700835e-05)
(0.93021676 0 5.9350901e-05)
(0.92995498 -2.9698482e-20 5.9653526e-05)
(0.92969912 0 5.9497743e-05)
(0.92943922 2.9433756e-20 5.9609652e-05)
(0.92918188 2.9301443e-20 5.9527127e-05)
(0.92892286 -1.4584586e-20 5.9559781e-05)
(0.92866496 2.9036934e-20 5.9511455e-05)
(0.92840637 2.8904732e-20 5.9512943e-05)
(0.92814827 0 5.9480627e-05)
(0.92788991 2.8640433e-20 5.9469713e-05)
(0.92763177 -1.4254168e-20 5.9444592e-05)
(0.92737354 1.4188137e-20 5.9428627e-05)
(0.92711543 0 5.9406655e-05)
(0.9268573 2.8112257e-20 5.9388591e-05)
(0.92659923 2.7980301e-20 5.9367981e-05)
(0.92634118 -1.392419e-20 5.9349037e-05)
(0.92608317 0 5.9329009e-05)
(0.92582518 2.7584646e-20 5.9309699e-05)
(0.92556724 2.7452832e-20 5.9289922e-05)
(0.92530933 2.7321053e-20 5.9270462e-05)
(0.92505145 0 5.9250798e-05)
(0.9247936 2.70576e-20 5.9231275e-05)
(0.92453579 0 5.9211661e-05)
(0.92427801 0 5.91921e-05)
(0.92402026 -2.6662686e-20 5.9172516e-05)
(0.92376255 0 5.9152965e-05)
(0.92350487 0 5.9133397e-05)
(0.92324722 -1.3134045e-20 5.9113834e-05)
(0.92298961 0 5.9094278e-05)
(0.92273203 -2.6005203e-20 5.907474e-05)
(0.92247448 -1.2936906e-20 5.9055177e-05)
(0.92221697 -1.2871229e-20 5.903563e-05)
(0.92195949 -1.2805568e-20 5.9016085e-05)
(0.92170204 0 5.8996558e-05)
(0.92144463 1.2674301e-20 5.8977e-05)
(0.92118725 -1.2608694e-20 5.8957468e-05)
(0.9209299 -2.508621e-20 5.8937955e-05)
(0.92067259 2.4955067e-20 5.8918427e-05)
(0.92041531 -1.2411979e-20 5.8898907e-05)
(0.92015806 -1.2346443e-20 5.8879386e-05)
(0.91990085 0 5.8859885e-05)
(0.91964366 -2.4430848e-20 5.8840362e-05)
(0.91938652 2.4299881e-20 5.8820856e-05)
(0.9191294 -1.2084475e-20 5.880135e-05)
(0.91887232 0 5.8781865e-05)
(0.91861527 0 5.876235e-05)
(0.91835826 -2.3776369e-20 5.8742858e-05)
(0.91810128 2.364558e-20 5.8723371e-05)
(0.91784433 0 5.8703883e-05)
(0.91758742 -2.3384107e-20 5.8684389e-05)
(0.91733054 0 5.8664914e-05)
(0.91707369 -2.3122776e-20 5.8645443e-05)
(0.91681687 2.2992163e-20 5.862597e-05)
(0.91656009 0 5.8606493e-05)
(0.91630334 0 5.8587029e-05)
(0.91604663 -1.1300269e-20 5.8567571e-05)
(0.91578995 -1.1235034e-20 5.8548112e-05)
(0.9155333 2.2339632e-20 5.8528647e-05)
(0.91527668 -1.1104616e-20 5.8509198e-05)
(0.9150201 -1.1039434e-20 5.8489742e-05)
(0.91476355 -1.0974269e-20 5.8470303e-05)
(0.91450703 -2.1818244e-20 5.8450852e-05)
(0.91425055 2.1687986e-20 5.8431422e-05)
(0.9139941 2.1557763e-20 5.8411979e-05)
(0.91373769 2.1427576e-20 5.8392558e-05)
(0.9134813 3.1946135e-20 5.8373127e-05)
(0.91322496 0 5.8353698e-05)
(0.91296864 2.1037226e-20 5.8334272e-05)
(0.91271236 2.090718e-20 5.8314858e-05)
(0.91245611 2.077717e-20 5.8295442e-05)
(0.91219989 0 5.8276025e-05)
(0.91194371 2.0517256e-20 5.8256614e-05)
(0.91168756 2.0387353e-20 5.8237217e-05)
(0.91143144 2.0257484e-20 5.8217816e-05)
(0.91117536 2.0127652e-20 5.8198414e-05)
(0.9109193 0 5.8179021e-05)
(0.91066329 1.9868092e-20 5.8159641e-05)
(0.9104073 1.9738366e-20 5.8140242e-05)
(0.91015135 1.9608675e-20 5.8120857e-05)
(0.90989543 1.947902e-20 5.8101474e-05)
(0.90963955 9.6746998e-21 5.8082109e-05)
(0.9093837 0 5.8062724e-05)
(0.90912788 1.9090267e-20 5.8043353e-05)
(0.9088721 1.8960753e-20 5.8023989e-05)
(0.90861634 1.8831276e-20 5.8004626e-05)
(0.90836063 9.3509164e-21 5.7985257e-05)
(0.90810494 1.8572426e-20 5.7965904e-05)
(0.90784929 1.8443055e-20 5.7946555e-05)
(0.90759367 1.8313719e-20 5.792721e-05)
(0.90733808 1.8184419e-20 5.7907853e-05)
(0.90708253 9.0275773e-21 5.7888514e-05)
(0.90682701 1.7925925e-20 5.7869177e-05)
(0.90657153 1.7796731e-20 5.7849844e-05)
(0.90631607 1.7667573e-20 5.7830501e-05)
(0.90606065 1.7538451e-20 5.7811176e-05)
(0.90580527 0 5.7791846e-05)
(0.90554991 1.7280312e-20 5.7772529e-05)
(0.90529459 1.7151296e-20 5.7753203e-05)
(0.90503931 1.7022316e-20 5.7733897e-05)
(0.90478405 1.6893371e-20 5.7714579e-05)
(0.90452883 1.6764462e-20 5.7695278e-05)
(0.90427364 1.6635588e-20 5.7675972e-05)
(0.90401849 1.650675e-20 5.765666e-05)
(0.90376337 1.6377947e-20 5.7637358e-05)
(0.90350828 1.624918e-20 5.7618071e-05)
(0.90325323 -8.0602244e-21 5.7598777e-05)
(0.9029982 1.5991753e-20 5.7579486e-05)
(0.90274322 1.5863093e-20 5.7560197e-05)
(0.90248826 1.5734468e-20 5.7540924e-05)
(0.90223334 1.5605879e-20 5.7521649e-05)
(0.90197845 7.7386628e-21 5.750237e-05)
(0.90172359 1.5348808e-20 5.7483101e-05)
(0.90146877 2.2830488e-20 5.7463843e-05)
(0.90121398 1.5091879e-20 5.7444565e-05)
(0.90095922 1.4963468e-20 5.7425303e-05)
(0.9007045 7.4175461e-21 5.7406044e-05)
(0.90044981 1.4706753e-20 5.7386803e-05)
(0.90019515 1.4578449e-20 5.7367539e-05)
(0.89994053 1.445018e-20 5.7348295e-05)
(0.89968594 1.4321947e-20 5.7329055e-05)
(0.89943138 0 5.7309814e-05)
(0.89917686 1.4065588e-20 5.7290569e-05)
(0.89892237 1.3937462e-20 5.7271342e-05)
(0.89866791 1.3809371e-20 5.7252111e-05)
(0.89841348 1.3681317e-20 5.7232887e-05)
(0.89815909 1.3553298e-20 5.7213643e-05)
(0.89790473 0 5.7194428e-05)
(0.89765041 1.3297366e-20 5.7175231e-05)
(0.89739612 1.3169454e-20 5.7156003e-05)
(0.89714186 1.3041578e-20 5.7136799e-05)
(0.89688763 6.4568682e-21 5.7117597e-05)
(0.89663344 1.2785931e-20 5.7098395e-05)
(0.89637928 1.2658162e-20 5.7079189e-05)
(0.89612515 1.2530428e-20 5.7059996e-05)
(0.89587106 1.240273e-20 5.704081e-05)
(0.895617 1.8412601e-20 5.7021625e-05)
(0.89536297 1.2147441e-20 5.7002431e-05)
(0.89510897 1.2019849e-20 5.6983254e-05)
(0.89485501 1.1892294e-20 5.6964065e-05)
(0.89460109 1.1764774e-20 5.6944894e-05)
(0.89434719 5.8186449e-21 5.6925717e-05)
(0.89409333 0 5.6906558e-05)
(0.8938395 1.1382429e-20 5.6887383e-05)
(0.8935857 5.6275259e-21 5.6868227e-05)
(0.89333194 0 5.6849066e-05)
(0.89307821 0 5.6829921e-05)
(0.89282452 1.0873135e-20 5.6810762e-05)
(0.89257085 5.3729505e-21 5.679162e-05)
(0.89231722 0 5.6772474e-05)
(0.89206363 1.049154e-20 5.6753324e-05)
(0.89181006 0 5.6734185e-05)
(0.89155653 0 5.6715055e-05)
(0.89130303 5.0551332e-21 5.6695926e-05)
(0.89104957 9.983247e-21 5.6676795e-05)
(0.89079614 0 5.6657669e-05)
(0.89054274 -4.8646572e-21 5.6638562e-05)
(0.89028937 -4.801201e-21 5.6619432e-05)
(0.89003604 4.7377626e-21 5.6600319e-05)
(0.88978274 4.6743421e-21 5.6581209e-05)
(0.88952947 -4.6109395e-21 5.6562114e-05)
(0.88927624 1.3642665e-20 5.6542997e-05)
(0.88902304 0 5.6523893e-05)
(0.88876987 0 5.6504797e-05)
(0.88851674 1.3072524e-20 5.6485718e-05)
(0.88826364 -4.2941947e-21 5.6466615e-05)
(0.88801057 4.2308994e-21 5.6447529e-05)
(0.88775754 0 5.6428453e-05)
(0.88750454 8.2087252e-21 5.6409372e-05)
(0.88725157 4.0411208e-21 5.6390291e-05)
(0.88699863 0 5.6371219e-05)
(0.88674573 0 5.6352155e-05)
(0.88649286 0 5.6333091e-05)
(0.88624002 3.7883333e-21 5.6314018e-05)
(0.88598722 0 5.6294965e-05)
(0.88573445 7.3240942e-21 5.62759e-05)
(0.88548171 0 5.6256852e-05)
(0.88522901 0 5.6237799e-05)
(0.88497634 3.472752e-21 5.621876e-05)
(0.8847237 0 5.6199711e-05)
(0.8844711 0 5.6180679e-05)
(0.88421852 3.2836177e-21 5.6161642e-05)
(0.88396599 3.2206092e-21 5.6142617e-05)
(0.88371348 3.157618e-21 5.6123581e-05)
(0.88346101 3.094645e-21 5.6104561e-05)
(0.88320857 3.0316899e-21 5.6085537e-05)
(0.88295616 8.9062584e-21 5.606651e-05)
(0.88270379 0 5.6047495e-05)
(0.88245145 0 5.6028491e-05)
(0.88219914 8.3401467e-21 5.6009482e-05)
(0.88194686 -2.7171834e-21 5.5990474e-05)
(0.88169462 2.6543358e-21 5.5971475e-05)
(0.88144241 5.1830128e-21 5.5952489e-05)
(0.88119024 0 5.5933479e-05)
(0.8809381 2.4659009e-21 5.5914491e-05)
(0.88068599 0 5.5895499e-05)
(0.88043391 4.6807349e-21 5.5876528e-05)
(0.88018187 0 5.585753e-05)
(0.87992986 0 5.5838557e-05)
(0.87967788 0 5.5819577e-05)
(0.87942594 4.1790311e-21 5.5800628e-05)
(0.87917402 0 5.5781639e-05)
(0.87892215 0 5.5762692e-05)
(0.8786703 0 5.5743715e-05)
(0.87841849 0 5.5724793e-05)
(0.87816671 0 5.5705778e-05)
(0.87791496 1.7137764e-21 5.568691e-05)
(0.87766325 -1.6512157e-21 5.5667845e-05)
(0.87741157 0 5.5649089e-05)
(0.87715992 1.5261489e-21 5.5629854e-05)
(0.87690831 1.4636427e-21 5.5611361e-05)
(0.87665672 1.4011539e-21 5.5591749e-05)
(0.87640519 0 5.5573842e-05)
(0.87615365 0 5.5553351e-05)
(0.8759022 1.2137965e-21 5.5536804e-05)
(0.8756507 -1.1513794e-21 5.5514274e-05)
(0.87539937 1.088981e-21 5.5500863e-05)
(0.87514786 0 5.5473544e-05)
(0.8748967 0 5.546747e-05)
(0.8746451 9.0189238e-22 5.542903e-05)
(0.87439424 1.6791334e-21 5.5440112e-05)
(0.87414233 0 5.537613e-05)
(0.87389212 0 5.5427938e-05)
(0.87363938 0 5.5306365e-05)
(0.87339054 1.1808839e-21 5.5457427e-05)
(0.87313575 0 5.5210753e-05)
(0.87288993 0 5.5613962e-05)
(0.87263003 0 5.5107451e-05)
(0.87239075 -3.4161553e-22 5.6178196e-05)
(0.87211789 0 5.5097335e-05)
(0.87189313 0 5.7928616e-05)
(0.87158707 1.5510155e-22 5.4744616e-05)
(0.87140268 -9.3144566e-23 6.1504914e-05)
(0.87101669 0 4.4284934e-05)
(1.389663 3.2335372e-20 0.052342248)
(1.2343294 6.4392742e-20 0.050018084)
(1.0856099 3.2072281e-20 0.036702056)
(1.0096625 3.1917004e-20 0.020029851)
(0.96404275 6.3583347e-20 0.010764377)
(0.94391184 3.1653991e-20 0.0051198601)
(0.93297663 6.3048187e-20 0.0024793937)
(0.92871717 0 0.0011067811)
(0.92626965 6.2513689e-20 0.00053635837)
(0.92540921 6.2245091e-20 0.00025440244)
(0.92473421 3.0989438e-20 0.00015592314)
(0.92444264 0 0.00010470562)
(0.92410249 0 9.3079246e-05)
(0.92386828 3.0588406e-20 8.4397591e-05)
(0.92359039 3.7830685e-28 8.4742407e-05)
(0.92334818 3.0321384e-20 8.3106637e-05)
(0.92308409 -3.9549391e-28 8.3973008e-05)
(0.922834 3.0054481e-20 8.3500925e-05)
(0.92257434 2.9921091e-20 8.3912177e-05)
(0.92232058 2.9787712e-20 8.3701683e-05)
(0.92206279 -2.9654384e-20 8.3853086e-05)
(0.92180755 4.4796071e-28 8.3740733e-05)
(0.92155064 2.9387821e-20 8.3784165e-05)
(0.92129485 4.4386474e-28 8.3717791e-05)
(0.92103837 4.3906572e-28 8.3718839e-05)
(0.92078238 0 8.3674075e-05)
(0.92052612 4.399907e-28 8.3658293e-05)
(0.92027009 2.8722037e-20 8.3623254e-05)
(0.92001397 4.4030567e-28 8.3600621e-05)
(0.91975796 0 8.3569848e-05)
(0.91950193 4.4034959e-28 8.3544372e-05)
(0.91924597 4.405033e-28 8.3515448e-05)
(0.91899002 2.8057143e-20 8.3488777e-05)
(0.91873412 0 8.3460638e-05)
(0.91847824 4.4016492e-28 8.3433474e-05)
(0.91822241 4.4012024e-28 8.340568e-05)
(0.9179666 4.4004559e-28 8.3378309e-05)
(0.91771082 2.7393137e-20 8.3350665e-05)
(0.91745508 -2.7260442e-20 8.3323213e-05)
(0.91719937 2.7127783e-20 8.3295636e-05)
(0.91694369 2.699516e-20 8.3268135e-05)
(0.91668805 2.6862572e-20 8.3240597e-05)
(0.91643244 0 8.3213109e-05)
(0.91617686 0 8.3185595e-05)
(0.91592132 2.6465022e-20 8.3158091e-05)
(0.91566581 2.6332576e-20 8.3130593e-05)
(0.91541033 2.6200166e-20 8.3103122e-05)
(0.91515488 2.6067792e-20 8.3075617e-05)
(0.91489947 2.5935453e-20 8.3048132e-05)
(0.91464409 2.580315e-20 8.3020654e-05)
(0.91438874 0 8.2993197e-05)
(0.91413343 0 8.2965697e-05)
(0.91387815 2.5406454e-20 8.2938235e-05)
(0.9136229 2.5274293e-20 8.2910801e-05)
(0.91336769 -2.5142167e-20 8.2883343e-05)
(0.91311251 0 8.2855896e-05)
(0.91285736 2.4878024e-20 8.2828449e-05)
(0.91260224 2.4746006e-20 8.2801034e-05)
(0.91234716 2.4614023e-20 8.277358e-05)
(0.91209211 4.383069e-28 8.2746155e-05)
(0.9118371 2.4350165e-20 8.2718729e-05)
(0.91158211 0 8.2691333e-05)
(0.91132716 2.4086448e-20 8.2663898e-05)
(0.91107224 2.3954643e-20 8.2636487e-05)
(0.91081736 -2.3822874e-20 8.2609088e-05)
(0.91056251 2.3691142e-20 8.2581688e-05)
(0.91030769 2.3559443e-20 8.2554281e-05)
(0.9100529 2.3427782e-20 8.2526897e-05)
(0.90979815 2.3296155e-20 8.2499519e-05)
(0.90954343 -2.3164564e-20 8.247214e-05)
(0.90928875 2.303301e-20 8.2444754e-05)
(0.90903409 0 8.2417392e-05)
(0.90877947 0 8.2390029e-05)
(0.90852488 2.2638558e-20 8.236267e-05)
(0.90827033 -2.2507146e-20 8.23353e-05)
(0.90801581 2.237577e-20 8.2307959e-05)
(0.90776132 2.2244428e-20 8.2280599e-05)