/*--------------------------------*- C++ -*----------------------------------*\
  =========                 |
  \\      /  F ield         | OpenFOAM: The Open Source CFD Toolbox
   \\    /   O peration     | Website:  https://openfoam.org
    \\  /    A nd           | Version:  6
     \\/     M anipulation  |
\*---------------------------------------------------------------------------*/
FoamFile
{
    version     2.0;
    format      ascii;
    class       volVectorField;
    location    "10";
    object      grad(p);
}
// * * * * * * * * * * * * * * * * * * * * * * * * * * * * * * * * * * * * * //

dimensions      [0 1 -2 0 0 0 0];

internalField   nonuniform List<vector> 
15000
(
(256768.51 0 83619.59)
(449748.5 0 73242.993)
(257104.54 0 71641.455)
(35693.809 0 67969.395)
(-137831.69 0 58895.752)
(-286802.21 -1.6182722e-12 49663.658)
(-410107.72 0 40880.786)
(-509443.17 0 32929.849)
(-587943.56 -1.6157555e-12 26043.569)
(-648958.88 0 20282.134)
(-695689.14 -1.6133253e-12 15570.675)
(-730994.35 0 11804.287)
(-757309.52 0 8833.0206)
(-776644.65 -1.6091245e-12 6536.9124)
(-790634.74 0 4758.4499)
(-800579.82 0 3415.1467)
(-807494.87 0 2394.4754)
(-812159.91 -1.6030892e-12 1643.9384)
(-815179.94 0 1080.9999)
(-817014.97 0 683.16609)
(-817999.98 -1.5984633e-12 390.40016)
(-818409.99 0 187.70178)
(-818420 -1.5953698e-12 52.559129)
(-818165 0 -45.052937)
(-817760.01 0 -105.12878)
(-817270.01 0 -135.17234)
(-816740.01 0 -150.19901)
(-816210.01 0 -157.71686)
(-815700.01 0 -150.21405)
(-815220.01 -1.5845589e-12 -142.7105)
(-814780.01 0 -127.69473)
(-814385.01 -1.5814775e-12 -120.1893)
(-814030.01 0 -105.1709)
(-813725.01 0 -97.663587)
(-813460 -1.5768596e-12 -82.642558)
(-813225 0 -75.133362)
(-813030 0 -60.1097)
(-812865 0 -52.598622)
(-812725 -1.5707068e-12 -45.086792)
(-812610 0 -37.574209)
(-812510 0 -30.060873)
(-812430 0 -30.062379)
(-812370 0 -22.547914)
(-812320 0 -15.032696)
(-812280 0 -15.033449)
(-812250 0 -15.034203)
(-812230 0 -7.5174781)
(-812215 0 -7.5178549)
(-812205 0 0)
(-812200 0 0)
(-812200 -1.5522505e-12 0)
(-812200 1.5507118e-12 7.5193624)
(-812205 -1.5491729e-12 0)
(-812215 0 0)
(-812225 1.5460945e-12 7.5204934)
(-812235 -1.5445551e-12 7.5208704)
(-812250 0 7.5212475)
(-812265 0 7.5216247)
(-812275 0 7.5220019)
(-812290 0 7.5223791)
(-812310 0 7.5227563)
(-812325 0 7.5231336)
(-812340 -1.533774e-12 7.523511)
(-812360 1.5322331e-12 7.5238884)
(-812380 0 7.5242658)
(-812395 0 7.5246432)
(-812410 1.5276092e-12 7.5250207)
(-812430 -1.5260675e-12 7.5253982)
(-812450 0 7.5257758)
(-812470 0 7.5261534)
(-812490 0 7.526531)
(-812505 0 7.5269087)
(-812520 0 7.5272864)
(-812545 0 7.5276642)
(-812565 0 7.528042)
(-812580 0 7.5284198)
(-812595 0 7.5287977)
(-812615 0 0)
(-812640 0 7.5295535)
(-812655 0 7.5299315)
(-812675 0 0)
(-812695 0 7.5306876)
(-812715 0 7.5310657)
(-812735 0 7.5314438)
(-812750 1.4998297e-12 7.531822)
(-812770 0 7.5322)
(-812790 0 7.5325784)
(-812805 0 7.5329567)
(-812825 0 7.533335)
(-812850 0 7.5337134)
(-812865 0 7.5340918)
(-812880 0 7.5344702)
(-812905 1.4874633e-12 7.5348487)
(-812925 1.4859166e-12 7.5352272)
(-812940 0 7.5356057)
(-812960 0 7.5359843)
(-812980 1.4812754e-12 7.536363)
(-813000 1.4797279e-12 7.5367416)
(-813015 0 7.5371203)
(-813035 0 7.5374991)
(-813055 0 7.5378778)
(-813075 0 7.5382567)
(-813095 -1.4719878e-12 7.5386355)
(-813110 0 7.5390144)
(-813135 0 7.5393933)
(-813155 1.4673413e-12 7.5397723)
(-813165 0 7.5401513)
(-813185 0 0)
(-813210 1.4626932e-12 7.5409094)
(-813230 0 7.5412886)
(-813245 0 7.5416677)
(-813265 0 7.5420469)
(-813285 0 7.5424262)
(-813305 0 7.5428054)
(-813325 1.4533916e-12 7.5431847)
(-813340 0 7.5435641)
(-813360 0 7.5439435)
(-813380 0 7.5443229)
(-813400 0 7.5447024)
(-813415 0 7.5450819)
(-813435 0 7.5454614)
(-813460 0 7.545841)
(-813475 0 7.5462206)
(-813490 0 7.5466001)
(-813515 0 0)
(-813535 0 7.5473597)
(-813550 1.4347675e-12 7.5477395)
(-813570 1.4332142e-12 7.5481193)
(-813590 0 7.5484991)
(-813610 1.4301071e-12 7.548879)
(-813630 0 7.5492589)
(-813645 0 7.5496389)
(-813665 -1.4254449e-12 7.5500189)
(-813685 0 7.5503989)
(-813705 0 7.5507788)
(-813725 1.420781e-12 7.5511591)
(-813740 0 7.5515393)
(-813765 1.4176708e-12 7.5519195)
(-813785 1.4161154e-12 7.5522997)
(-813800 0 7.5526799)
(-813815 0 7.5530603)
(-813835 1.411448e-12 0)
(-813860 1.4098918e-12 7.553821)
(-813880 0 7.5542014)
(-813895 0 7.5545819)
(-813915 0 7.5549624)
(-813935 0 7.5553427)
(-813950 0 7.5557235)
(-813970 0 7.5561041)
(-813995 0 0)
(-814015 1.3974352e-12 7.5568654)
(-814030 0 7.5572461)
(-814045 0 7.5576269)
(-814065 0 7.5580077)
(-814090 0 7.5583886)
(-814110 0 7.5587694)
(-814125 0 7.5591504)
(-814140 0 7.5595313)
(-814165 0 0)
(-814185 1.3834066e-12 7.5602933)
(-814200 1.3818469e-12 7.5606744)
(-814220 -1.380287e-12 7.5610555)
(-814240 0 7.5614367)
(-814260 0 0)
(-814280 0 7.5621991)
(-814300 -1.3740454e-12 7.5625804)
(-814320 -1.3724845e-12 7.5629617)
(-814335 1.3709235e-12 7.563343)
(-814355 1.3693622e-12 7.5637242)
(-814375 0 7.5641058)
(-814395 1.3662391e-12 7.5644873)
(-814415 1.3646772e-12 7.5648688)
(-814430 1.3631151e-12 7.5652503)
(-814450 -1.3615529e-12 7.5656319)
(-814475 -1.3599904e-12 0)
(-814490 0 7.5663949)
(-814505 -1.3568649e-12 0)
(-814530 -1.3553019e-12 7.5671585)
(-814550 -1.3537387e-12 7.5675403)
(-814570 1.3521752e-12 7.5679221)
(-814585 0 7.5683038)
(-814605 0 7.5686858)
(-814625 0 7.5690678)
(-814640 1.3459195e-12 7.5694497)
(-814665 1.3443551e-12 0)
(-814685 0 7.5702137)
(-814700 1.3412257e-12 7.5705958)
(-814720 0 7.5709779)
(-814740 0 7.5713601)
(-814760 0 7.5717423)
(-814780 0 7.5721245)
(-814795 0 7.5725068)
(-814815 0 7.5728891)
(-814840 0 7.5732714)
(-814855 0 7.5736538)
(-814875 0 7.5740362)
(-814895 0 7.5744187)
(-814910 0 7.5748012)
(-814930 1.3224327e-12 7.5751837)
(-814955 0 7.5755663)
(-814975 1.3192978e-12 7.5759489)
(-814990 1.31773e-12 7.5763315)
(-815005 1.3161621e-12 7.5767142)
(-815025 -1.3145939e-12 7.5770968)
(-815050 0 7.5774797)
(-815070 1.311457e-12 7.5778625)
(-815085 -1.3098883e-12 7.5782454)
(-815105 -1.3083193e-12 7.5786283)
(-815125 -1.3067502e-12 7.5790112)
(-815145 1.3051809e-12 7.5793942)
(-815165 0 7.5797772)
(-815180 -1.3020416e-12 7.5801602)
(-815200 1.3004717e-12 7.5805433)
(-815220 1.2989016e-12 7.5809264)
(-815240 0 7.5813096)
(-815260 0 7.5816927)
(-815280 1.29419e-12 7.582076)
(-815300 1.2926191e-12 7.5824593)
(-815320 -1.291048e-12 7.5828426)
(-815335 0 7.5832259)
(-815355 0 7.5836093)
(-815380 0 7.5839927)
(-815395 0 7.5843762)
(-815410 -1.2831895e-12 7.5847597)
(-815435 0 7.5851432)
(-815455 0 7.5855268)
(-815470 0 7.5859104)
(-815490 0 7.5862941)
(-815510 1.275326e-12 7.5866778)
(-815530 0 7.5870615)
(-815550 0 7.5874453)
(-815570 1.2706056e-12 7.5878291)
(-815590 0 7.588213)
(-815605 0 7.5885969)
(-815625 -1.2658833e-12 7.5889808)
(-815645 1.2643089e-12 7.5893648)
(-815665 -1.2627342e-12 0)
(-815685 0 7.5901328)
(-815705 0 7.5905169)
(-815725 0 7.590901)
(-815740 -1.2564335e-12 7.5912852)
(-815760 -1.2548579e-12 7.5916694)
(-815780 1.253282e-12 7.5920537)
(-815800 1.2517059e-12 0)
(-815820 0 0)
(-815840 1.2485532e-12 7.5932066)
(-815860 1.2469766e-12 7.593591)
(-815880 1.2453997e-12 7.5939755)
(-815900 -1.2438227e-12 7.5943599)
(-815915 0 7.5947444)
(-815935 0 7.595129)
(-815955 -1.2390903e-12 7.5955136)
(-815975 -1.2375125e-12 7.5958982)
(-815995 -1.2359344e-12 7.5962829)
(-816010 0 7.5966676)
(-816035 0 7.5970524)
(-816055 0 7.5974371)
(-816070 0 7.597822)
(-816090 1.2280412e-12 7.5982068)
(-816110 0 7.5985917)
(-816130 0 7.5989767)
(-816150 1.2233029e-12 7.5993617)
(-816170 0 7.5997467)
(-816185 0 7.6001317)
(-816205 -1.2185628e-12 7.6005168)
(-816230 0 7.600902)
(-816245 0 7.6012872)
(-816265 0 7.6016724)
(-816285 0 7.6020576)
(-816300 0 7.6024429)
(-816325 0 7.6028283)
(-816345 0 7.6032136)
(-816360 0 7.603599)
(-816380 1.2043317e-12 7.6039845)
(-816400 0 7.60437)
(-816420 1.2011671e-12 7.6047555)
(-816440 1.1995845e-12 7.6051411)
(-816460 0 7.6055267)
(-816480 0 7.6059123)
(-816500 -1.1948354e-12 7.606298)
(-816515 1.1932519e-12 7.6066837)
(-816535 -1.1916683e-12 7.6070695)
(-816560 -1.1900845e-12 7.6074553)
(-816575 -1.1885005e-12 7.6078412)
(-816595 0 7.608227)
(-816615 -1.1853318e-12 7.608613)
(-816630 -1.1837472e-12 7.6089989)
(-816655 1.1821624e-12 0)
(-816675 1.1805774e-12 7.609771)
(-816690 0 7.610157)
(-816710 0 7.6105431)
(-816730 1.1758211e-12 7.6109293)
(-816750 1.1742353e-12 7.6113155)
(-816770 -1.1726493e-12 7.6117017)
(-816790 0 7.612088)
(-816810 0 7.6124743)
(-816830 0 7.6128607)
(-816850 0 7.6132471)
(-816865 -1.1647161e-12 7.6136335)
(-816885 0 7.61402)
(-816910 0 7.6144065)
(-816925 0 7.614793)
(-816945 0 7.6151796)
(-816965 1.156778e-12 7.6155662)
(-816980 0 7.6159529)
(-817005 0 7.6163396)
(-817025 1.1520127e-12 7.6167263)
(-817040 0 7.6171131)
(-817060 0 7.6174999)
(-817080 -1.1472456e-12 7.6178868)
(-817100 1.1456562e-12 7.6182737)
(-817120 -1.1440666e-12 7.6186606)
(-817140 0 7.6190476)
(-817160 0 7.6194346)
(-817180 0 7.6198217)
(-817200 -1.1377061e-12 7.6202088)
(-817220 -1.1361154e-12 7.6205959)
(-817235 1.1345246e-12 7.6209831)
(-817255 1.1329335e-12 7.6213703)
(-817275 0 7.6217576)
(-817295 0 7.6221449)
(-817315 -1.1281592e-12 7.6225322)
(-817335 0 7.6229196)
(-817355 0 7.623307)
(-817375 0 7.6236944)
(-817395 0 7.6240819)
(-817410 0 7.6244695)
(-817430 1.1186052e-12 7.624857)
(-817450 0 7.6252447)
(-817470 0 7.6256323)
(-817490 -1.1138254e-12 0)
(-817510 0 0)
(-817530 0 0)
(-817550 -1.1090439e-12 7.6271833)
(-817570 0 7.6275711)
(-817590 0 7.627959)
(-817610 0 7.6283469)
(-817625 0 7.6287349)
(-817645 0 7.6291229)
(-817670 -1.0994753e-12 7.629511)
(-817685 0 7.629899)
(-817705 0 7.6302872)
(-817725 0 7.6306753)
(-817745 0 7.6310635)
(-817765 0 7.6314518)
(-817780 -1.0898995e-12 7.63184)
(-817805 0 7.6322284)
(-817825 0 7.6326167)
(-817840 0 7.6330051)
(-817860 0 7.6333936)
(-817880 0 7.633782)
(-817900 -1.0803164e-12 7.6341706)
(-817920 0 7.6345591)
(-817940 0 7.6349477)
(-817960 -1.0755221e-12 7.6353363)
(-817980 0 7.635725)
(-818000 0 7.6361137)
(-818020 1.070726e-12 7.6365025)
(-818040 0 7.6368913)
(-818055 0 7.6372801)
(-818075 0 7.637669)
(-818100 0 7.6380579)
(-818115 0 7.6384469)
(-818135 -1.0611283e-12 7.6388358)
(-818155 0 7.6392249)
(-818175 0 7.639614)
(-818195 -1.0563267e-12 7.6400031)
(-818210 0 7.6403922)
(-818235 0 7.6407814)
(-818255 0 7.6411706)
(-818270 0 7.6415599)
(-818295 0 7.6419492)
(-818315 0 7.6423386)
(-818330 0 7.642728)
(-818350 0 7.6431174)
(-818370 -1.0419111e-12 7.6435068)
(-818390 0 7.6438964)
(-818410 0 7.6442859)
(-818430 0 7.6446754)
(-818450 0 7.6450651)
(-818470 0 7.6454547)
(-818490 0 7.6458445)
(-818505 0 7.6462342)
(-818525 0 7.646624)
(-818550 -1.027479e-12 7.6470138)
(-818565 0 7.6474037)
(-818585 0 0)
(-818610 0 7.6481835)
(-818625 0 7.6485735)
(-818645 0 7.6489636)
(-818665 0 7.6493536)
(-818685 0 7.6497437)
(-818705 0 7.6501339)
(-818725 -1.0130305e-12 7.6505241)
(-818745 0 7.6509142)
(-818760 0 7.6513046)
(-818780 -1.0082106e-12 7.6516949)
(-818805 0 7.6520852)
(-818825 0 7.6524756)
(-818840 -1.0033889e-12 7.652866)
(-818860 0 7.6532565)
(-818880 0 7.653647)
(-818900 9.9856543e-13 7.6540375)
(-818920 0 7.6544281)
(-818940 0 7.6548187)
(-818960 -9.9374007e-13 7.6552094)
(-818980 0 7.6556001)
(-819000 0 7.6559908)
(-819020 -9.8891288e-13 7.6563816)
(-819040 0 7.6567724)
(-819060 0 7.6571633)
(-819080 0 7.6575542)
(-819095 0 7.6579451)
(-819115 0 7.6583361)
(-819140 -9.7925298e-13 7.6587271)
(-819155 0 7.6591181)
(-819175 0 7.6595093)
(-819200 0 7.6599004)
(-819215 0 7.6602916)
(-819235 0 7.6606828)
(-819255 -9.6958573e-13 7.6610741)
(-819275 0 7.6614654)
(-819295 0 7.6618567)
(-819310 0 7.6622481)
(-819335 0 7.6626395)
(-819355 0 7.663031)
(-819370 -9.5991112e-13 7.6634225)
(-819395 0 0)
(-819415 0 7.6642056)
(-819430 -9.5507105e-13 7.6645972)
(-819450 0 7.6649889)
(-819475 0 0)
(-819495 9.5022912e-13 7.6657723)
(-819510 0 7.6661641)
(-819530 0 7.6665559)
(-819550 0 7.6669478)
(-819570 0 7.6673397)
(-819590 0 7.6677316)
(-819610 -9.4053976e-13 7.6681236)
(-819630 0 7.6685156)
(-819650 0 7.6689077)
(-819670 -9.3569231e-13 7.6692998)
(-819690 0 7.6696919)
(-819710 0 7.6700841)
(-819730 0 7.6704763)
(-819745 0 7.6708686)
(-819765 0 7.6712609)
(-819790 0 7.6716532)
(-819810 0 7.6720456)
(-819825 0 7.6724381)
(-819845 -9.2113886e-13 7.6728305)
(-819870 0 7.673223)
(-819885 0 7.6736156)
(-819905 0 7.6740081)
(-819930 0 7.6744008)
(-819945 0 7.6747934)
(-819965 0 7.6751861)
(-819985 0 7.6755789)
(-820005 0 7.6759717)
(-820025 -9.0656873e-13 7.6763645)
(-820045 0 7.6767573)
(-820065 0 7.6771502)
(-820085 0 7.6775431)
(-820105 0 7.6779362)
(-820120 0 7.6783292)
(-820145 0 7.6787223)
(-820165 0 7.6791153)
(-820180 0 7.6795085)
(-820205 -8.9198194e-13 7.6799017)
(-820225 0 7.6802949)
(-820240 0 7.6806882)
(-820260 -8.8711596e-13 7.6810814)
(-820285 0 7.6814749)
(-820305 0 7.6818682)
(-820320 -8.8224811e-13 7.6822617)
(-820340 0 7.6826551)
(-820360 0 7.6830486)
(-820380 8.7737843e-13 7.6834422)
(-820405 0 0)
(-820425 0 7.6842294)
(-820440 -8.7250686e-13 7.6846231)
(-820460 0 7.6850168)
(-820480 0 7.6854105)
(-820500 -8.6763345e-13 7.6858043)
(-820520 0 7.6861982)
(-820540 0 7.686592)
(-820560 0 7.6869859)
(-820580 0 7.6873799)
(-820600 0 7.6877739)
(-820620 0 7.6881679)
(-820640 0 7.688562)
(-820655 0 7.6889561)
(-820675 0 0)
(-820700 0 7.6897445)
(-820720 0 7.6901387)
(-820740 -8.4812116e-13 7.690533)
(-820760 0 7.6909273)
(-820780 0 7.6913216)
(-820795 0 7.691716)
(-820815 0 7.6921105)
(-820840 0 7.6925049)
(-820860 -8.3835383e-13 7.6928995)
(-820875 0 7.693294)
(-820895 0 7.6936886)
(-820920 -8.3346736e-13 7.6940833)
(-820940 0 7.6944779)
(-820955 0 7.6948727)
(-820975 8.2857903e-13 7.6952674)
(-821000 0 7.6956622)
(-821015 0 7.6960571)
(-821035 0 7.6964519)
(-821055 0 7.6968469)
(-821075 0 0)
(-821100 -8.1879675e-13 7.6976368)
(-821115 0 7.6980319)
(-821135 0 7.698427)
(-821155 -8.139028e-13 7.6988221)
(-821175 0 0)
(-821200 0 7.6996125)
(-821215 0 7.7000077)
(-821235 0 7.7004029)
(-821255 0 7.7007983)
(-821275 0 7.7011937)
(-821295 0 7.7015891)
(-821315 0 7.7019846)
(-821335 -7.9920971e-13 7.70238)
(-821355 0 7.7027756)
(-821375 0 7.7031711)
(-821395 0 7.7035668)
(-821415 0 7.7039624)
(-821435 0 7.7043581)
(-821455 0 7.7047538)
(-821475 0 7.7051496)
(-821495 0 7.7055454)
(-821515 -7.8449976e-13 7.7059413)
(-821535 0 7.7063372)
(-821550 0 7.7067331)
(-821575 0 7.7071291)
(-821595 0 7.7075251)
(-821615 0 7.7079212)
(-821635 0 7.7083173)
(-821650 0 7.7087134)
(-821675 0 7.7091096)
(-821695 -7.6977289e-13 7.7095058)
(-821715 0 7.7099021)
(-821735 0 7.7102984)
(-821750 -7.6486018e-13 7.7106947)
(-821775 0 7.7110911)
(-821795 0 7.7114876)
(-821815 -7.5994559e-13 7.711884)
(-821835 0 7.7122805)
(-821850 0 7.7126771)
(-821875 7.5502911e-13 7.7130737)
(-821895 0 7.7134703)
(-821910 0 7.713867)
(-821935 -7.5011074e-13 7.7142637)
(-821955 0 7.7146604)
(-821970 0 7.7150572)
(-821995 -7.451905e-13 7.7154541)
(-822015 0 7.7158509)
(-822030 0 7.7162479)
(-822055 0 7.7166448)
(-822075 0 7.7170418)
(-822090 0 7.7174388)
(-822115 0 0)
(-822135 0 7.718233)
(-822155 0 7.7186302)
(-822175 0 7.7190274)
(-822190 0 7.7194247)
(-822215 0 7.7198219)
(-822235 -7.2549061e-13 7.7202193)
(-822250 0 7.7206166)
(-822275 0 7.721014)
(-822295 0 7.7214115)
(-822310 0 7.721809)
(-822335 0 7.7222065)
(-822355 -7.1562934e-13 7.7226041)
(-822375 0 7.7230017)
(-822395 0 7.7233993)
(-822410 -7.1069587e-13 7.723797)
(-822435 0 7.7241948)
(-822455 0 7.7245925)
(-822470 7.057605e-13 7.7249903)
(-822495 0 0)
(-822515 0 7.7257861)
(-822535 0 7.726184)
(-822555 0 7.726582)
(-822575 0 7.72698)
(-822595 -6.9588407e-13 7.7273781)
(-822610 0 7.7277762)
(-822635 0 7.7281743)
(-822655 -6.9094303e-13 7.7285725)
(-822675 0 7.7289708)
(-822695 0 7.729369)
(-822715 0 7.7297673)
(-822735 0 7.7301657)
(-822750 0 7.7305641)
(-822775 0 0)
(-822795 0 7.731361)
(-822815 0 0)
(-822835 -6.7610848e-13 7.7321581)
(-822855 0 0)
(-822875 0 7.7329553)
(-822895 -6.7115984e-13 0)
(-822920 0 7.7337527)
(-822935 0 7.7341514)
(-822955 0 7.7345502)
(-822975 0 7.734949)
(-822995 0 7.735348)
(-823015 -6.6125684e-13 7.7357469)
(-823035 0 7.7361459)
(-823060 0 7.7365449)
(-823075 0 7.7369439)
(-823095 0 7.737343)
(-823115 0 7.7377421)
(-823135 0 0)
(-823160 0 7.7385405)
(-823175 0 7.7389398)
(-823195 -6.4638807e-13 7.7393391)
(-823220 0 7.7397384)
(-823235 0 7.7401378)
(-823255 -6.41428e-13 0)
(-823280 0 7.7409367)
(-823300 0 7.7413362)
(-823315 -6.3646601e-13 7.7417356)
(-823335 0 7.7421353)
(-823360 0 7.7425349)
(-823380 6.3150214e-13 7.7429346)
(-823400 0 7.7433343)
(-823415 0 7.743734)
(-823435 -6.2653635e-13 7.7441337)
(-823460 0 7.7445336)
(-823480 0 7.7449335)
(-823500 -6.2156864e-13 7.7453334)
(-823520 0 7.7457334)
(-823540 0 7.7461334)
(-823560 0 7.7465334)
(-823580 0 7.7469335)
(-823600 0 7.7473336)
(-823620 0 7.7477338)
(-823640 0 7.748134)
(-823660 -6.0831207e-13 7.7485342)
(-823680 0 7.7489345)
(-823700 -6.0499581e-13 7.7493349)
(-823720 0 7.7497352)
(-823740 0 7.7501356)
(-823760 -6.0001982e-13 7.7505362)
(-823780 0 7.7509365)
(-823800 5.9670143e-13 7.7513371)
(-823820 0 7.7517377)
(-823840 0 7.7521383)
(-823865 0 7.7525391)
(-823885 0 7.7529397)
(-823900 -5.8840172e-13 7.7533404)
(-823920 0 7.7537411)
(-823945 0 7.754142)
(-823965 -5.8341934e-13 7.754543)
(-823980 5.8175812e-13 7.7549438)
(-824005 -5.800967e-13 7.7553447)
(-824025 0 7.7557457)
(-824040 5.7677318e-13 7.7561468)
(-824065 -5.7511112e-13 7.7565479)
(-824085 0 7.7569489)
(-824105 0 7.7573501)
(-824125 0 7.7577513)
(-824140 0 7.7581525)
(-824165 0 9.0321454e-08)
(-824190 0 7.7589551)
(-824205 -5.6347061e-13 7.7593565)
(-824225 5.6180684e-13 7.7597579)
(-824245 0 7.7601593)
(-824265 -5.5847864e-13 7.7605609)
(-824285 0 7.7609624)
(-824305 -5.5514957e-13 0)
(-824330 0 7.7617655)
(-824350 0 7.7621672)
(-824365 -5.5015437e-13 7.7625689)
(-824385 0 7.7629706)
(-824410 0 7.7633724)
(-824430 0 7.7637742)
(-824445 0 7.7641761)
(-824465 5.4182478e-13 9.0391585e-08)
(-824490 0 7.7649799)
(-824510 -5.3849144e-13 7.7653819)
(-824530 0 7.765784)
(-824550 0 7.766186)
(-824570 -5.3348982e-13 7.7665882)
(-824590 0 7.7669903)
(-824610 -5.3015434e-13 7.7673925)
(-824630 0 7.7677947)
(-824650 5.26818e-13 7.768197)
(-824675 -5.2514951e-13 7.7685994)
(-824695 0 7.7690017)
(-824710 5.2181187e-13 7.7694041)
(-824730 0 7.7698065)
(-824750 0 7.770209)
(-824775 0 7.7706116)
(-824795 0 7.7710141)
(-824810 -5.1346405e-13 7.7714167)
(-824835 0 7.7718194)
(-824855 0 7.7722221)
(-824870 -5.0845278e-13 7.7726249)
(-824895 5.0678193e-13 7.7730276)
(-824915 -5.0511085e-13 7.7734304)
(-824935 0 7.7738333)
(-824955 0 7.7742362)
(-824975 -5.0009637e-13 7.7746392)
(-825000 0 7.7750421)
(-825015 0 7.7754452)
(-825035 0 7.7758482)
(-825060 0 7.7762513)
(-825075 4.9173455e-13 7.7766546)
(-825095 0 7.7770577)
(-825120 -4.8838834e-13 7.7774609)
(-825140 4.867149e-13 7.7778642)
(-825160 0 7.7782675)
(-825180 -4.8336738e-13 7.7786709)
(-825195 0 7.7790743)
(-825215 -4.80019e-13 0)
(-825240 0 7.7798812)
(-825260 0 7.7802848)
(-825285 -4.7499482e-13 9.0579134e-08)
(-825305 0 7.7810919)
(-825320 4.7164427e-13 7.7814956)
(-825340 0 7.7818993)
(-825360 0 7.782303)
(-825380 0 7.7827069)
(-825405 0 7.7831106)
(-825425 -4.6326416e-13 7.7835145)
(-825440 0 7.7839184)
(-825465 0 7.7843224)
(-825485 -4.582335e-13 7.7847264)
(-825505 4.5655619e-13 7.7851304)
(-825525 -4.5487864e-13 7.7855345)
(-825545 0 7.7859386)
(-825565 4.5152292e-13 7.7863427)
(-825585 -4.4984475e-13 7.786747)
(-825605 0 7.7871512)
(-825625 0 0)
(-825650 0 7.7879598)
(-825670 0 7.7883642)
(-825685 0 7.7887686)
(-825705 0 7.7891731)
(-825730 -4.3809141e-13 7.7895776)
(-825750 4.364115e-13 7.7899821)
(-825770 0 7.7903867)
(-825790 -4.3305101e-13 7.7907913)
(-825810 0 7.791196)
(-825830 -4.2968967e-13 7.7916007)
(-825850 0 7.7920054)
(-825870 0 7.7924102)
(-825895 -4.2464603e-13 7.7928151)
(-825915 0 7.7932199)
(-825930 0 7.7936248)
(-825950 0 7.7940297)
(-825975 0 0)
(-825995 4.1623561e-13 7.7948399)
(-826015 0 7.7952449)
(-826035 -4.1286993e-13 7.79565)
(-826055 0 7.7960552)
(-826075 0 7.7964604)
(-826095 -4.0781979e-13 7.7968657)
(-826120 0 7.797271)
(-826135 -4.0445192e-13 7.7976763)
(-826155 0 7.7980817)
(-826180 4.0108321e-13 7.7984871)
(-826200 -3.9939851e-13 7.7988926)
(-826215 0 7.7992981)
(-826235 3.9602849e-13 0)
(-826260 0 7.8001092)
(-826280 0 7.8005148)
(-826300 0 7.8009206)
(-826325 0 7.8013262)
(-826345 -3.8759961e-13 7.801732)
(-826360 0 7.8021377)
(-826380 0 7.8025436)
(-826400 -3.8253969e-13 7.8029496)
(-826425 3.8085261e-13 7.8033555)
(-826445 -3.791653e-13 7.8037614)
(-826465 0 7.8041674)
(-826485 0 7.8045734)
(-826505 -3.741021e-13 7.8049796)
(-826525 0 7.8053857)
(-826545 0 7.8057919)
(-826565 0 7.8061981)
(-826585 0 7.8066044)
(-826610 3.6565907e-13 7.8070107)
(-826630 0 7.8074171)
(-826650 -3.6228032e-13 7.8078234)
(-826665 3.6059062e-13 7.8082299)
(-826685 0 7.8086364)
(-826710 -3.5721059e-13 7.8090429)
(-826730 0 7.8094494)
(-826755 -3.5382966e-13 0)
(-826775 0 7.8102627)
(-826790 0 7.8106694)
(-826810 -3.4875664e-13 7.8110761)
(-826830 0 7.8114829)
(-826855 3.4537353e-13 0)
(-826875 0 7.8122966)
(-826895 0 7.8127035)
(-826915 0 7.8131105)
(-826935 0 7.8135174)
(-826955 -3.3691193e-13 7.8139244)
(-826975 0 7.8143315)
(-827000 0 7.8147386)
(-827020 -3.3183235e-13 7.8151458)
(-827035 0 7.8155529)
(-827055 -3.2844488e-13 7.8159602)
(-827080 0 7.8163675)
(-827100 3.2505652e-13 7.8167748)
(-827120 -3.2336201e-13 7.8171822)
(-827140 0 7.8175896)
(-827160 0 7.817997)
(-827185 0 0)
(-827205 0 7.8188121)
(-827220 0 7.8192197)
(-827245 0 7.8196272)
(-827265 -3.114943e-13 7.8200349)
(-827285 3.0979805e-13 7.8204426)
(-827305 0 7.8208504)
(-827325 -3.0640487e-13 7.8212582)
(-827345 3.0470794e-13 7.821666)
(-827365 -3.0301081e-13 7.8220739)
(-827390 0 7.8224818)
(-827410 0 7.8228898)
(-827425 -2.9791806e-13 7.8232978)
(-827445 0 0)
(-827470 0 7.8241139)
(-827490 0 7.8245221)
(-827515 0 7.8249302)
(-827535 2.8942577e-13 7.8253385)
(-827550 0 7.8257467)
(-827570 -2.8602732e-13 7.826155)
(-827595 0 7.8265634)
(-827615 0 7.8269717)
(-827630 -2.8092799e-13 7.8273802)
(-827655 0 7.8277887)
(-827680 -2.7752733e-13 7.8281972)
(-827695 0 7.8286057)
(-827715 2.741258e-13 7.8290143)
(-827740 -2.7242469e-13 7.829423)
(-827755 0 7.8298317)
(-827775 2.6902184e-13 0)
(-827800 0 7.8306491)
(-827820 0 7.831058)
(-827840 0 7.8314669)
(-827865 0 7.8318757)
(-827885 -2.6051082e-13 7.8322847)
(-827900 0 7.8326937)
(-827920 0 7.8331027)
(-827945 -2.5540159e-13 7.8335118)
(-827965 2.5369805e-13 7.8339209)
(-827985 -2.5199432e-13 7.8343301)
(-828005 -2.5029034e-13 7.8347392)
(-828025 0 7.8351485)
(-828045 -2.4688175e-13 7.8355578)
(-828065 0 0)
(-828090 0 7.8363765)
(-828110 -2.4176721e-13 7.8367859)
(-828130 0 7.8371953)
(-828150 2.383564e-13 7.8376049)
(-828170 0 7.8380144)
(-828190 -2.3494472e-13 7.838424)
(-828210 0 7.8388336)
(-828235 0 7.8392432)
(-828255 -2.2982552e-13 7.839653)
(-828270 0 7.8400627)
(-828295 -2.2641163e-13 2.2818778e-08)
(-828320 2.2470434e-13 7.8408824)
(-828335 0 7.8412923)
(-828355 -2.2128912e-13 7.8417022)
(-828380 0 7.8421121)
(-828395 2.1787299e-13 7.8425222)
(-828415 2.1616462e-13 7.8429322)
(-828440 0 7.8433423)
(-828460 0 7.8437525)
(-828480 0 7.8441626)
(-828502.5 -2.0932885e-13 7.8445729)
(-828524 -2.0761934e-13 7.0604848)
(-828543 0 7.8453935)
(-828563 -2.0419968e-13 7.8458038)
(-828584 0 7.0615928)
(-828605 -2.0077913e-13 7.8466247)
(-828625.5 1.9906852e-13 7.8470351)
(-828646 1.9735769e-13 7.8474456)
(-828666.5 -1.9564664e-13 7.0630706)
(-828687.5 0 7.0634402)
(-828708.5 0 7.0638098)
(-828729 1.9051216e-13 7.0641793)
(-828749.5 0 7.0645491)
(-828770.5 0 7.0649188)
(-828791.5 0 7.0652885)
(-828812 -1.8366307e-13 7.8507314)
(-828832.5 0 7.0660281)
(-828853.5 0 7.0663979)
(-828874 -1.7852391e-13 7.8519643)
(-828895 1.7681042e-13 7.0671378)
(-828916 -1.750967e-13 7.8527865)
(-828936 -1.7338275e-13 7.8531976)
(-828957 0 7.0682479)
(-828978 -1.699542e-13 7.85402)
(-828998.5 0 7.0689881)
(-829019.5 0 7.0693583)
(-829040 -1.6480971e-13 7.8552539)
(-829060.5 0 7.0700987)
(-829081.5 1.6137893e-13 7.070469)
(-829102.5 0 7.0708393)
(-829123 -1.5794726e-13 7.8568997)
(-829144 -1.5623109e-13 7.0715801)
(-829165 0 7.8577228)
(-829185 -1.5279809e-13 7.8581345)
(-829206 0 7.0726916)
(-829227 -1.4936419e-13 7.8589579)
(-829247.5 1.476469e-13 7.8593697)
(-829268.5 1.459294e-13 7.8597815)
(-829289 -1.4421167e-13 7.8601934)
(-829310 0 7.0745447)
(-829331 1.4077553e-13 7.8610172)
(-829351.5 1.3905713e-13 7.8614292)
(-829372 0 7.8618413)
(-829393 0 7.076028)
(-829414 0 7.0763989)
(-829434.5 -1.321813e-13 7.0767699)
(-829455.5 -1.3046178e-13 7.0771408)
(-829476.5 0 7.0775119)
(-829497.5 -1.2702207e-13 7.0778829)
(-829518 1.2530188e-13 7.8647267)
(-829538.5 -1.2358147e-13 7.8651391)
(-829559.5 -1.2186084e-13 7.0789964)
(-829580.5 0 7.0793676)
(-829601.5 -1.1841889e-13 7.8663765)
(-829622 0 7.866789)
(-829642.5 0 7.8672016)
(-829663.5 -1.132543e-13 7.0808529)
(-829684.5 0 7.0812243)
(-829705.5 1.0981011e-13 7.0815957)
(-829726 0 7.8688525)
(-829747 -1.0636503e-13 7.0823388)
(-829768 0 7.8696781)
(-829788.5 0 7.870091)
(-829809.5 -1.0119573e-13 7.870504)
(-829830 0 7.870917)
(-829851 -9.7748413e-14 7.084197)
(-829872 9.6024416e-14 7.8717431)
(-829892.5 0 7.0849406)
(-829914 -9.2575749e-14 7.0853124)
(-829934.5 0 7.8729826)
(-829955 8.9126183e-14 7.0860562)
(-829976.5 8.7401063e-14 7.0864282)
(-829997 0 7.8742224)
(-830018 0 7.0871722)
(-830039 0 7.8750492)
(-830059.5 -8.0498339e-14 7.8754627)
(-830080.5 -7.8772095e-14 7.0882886)
(-830101.5 0 7.0886608)
(-830122.5 -7.5318935e-14 7.8767034)
(-830143 0 7.877117)
(-830164 -7.1864875e-14 7.0897776)
(-830185 7.0137507e-14 7.0901499)
(-830206 6.8409915e-14 7.0905223)
(-830227 -6.6682097e-14 7.878772)
(-830247.5 0 7.0912672)
(-830269 0 7.0916398)
(-830289.5 6.1497292e-14 7.8800137)
(-830310 0 7.0923849)
(-830331.5 0 7.0927575)
(-830352.5 0 7.0931302)
(-830373 -5.4581068e-14 7.8816699)
(-830394 0 7.0938756)
(-830415.5 0 7.0942484)
(-830436 -4.9391532e-14 7.8829125)
(-830457 4.7661236e-14 7.0949941)
(-830478 -4.5930714e-14 7.8837411)
(-830498.5 -4.4199966e-14 7.0957399)
(-830520 0 7.0961129)
(-830541 -4.0737794e-14 7.8849844)
(-830562 0 7.096859)
(-830583 0 7.8858134)
(-830603.5 -3.5542841e-14 7.0976052)
(-830625 0 7.0979784)
(-830646 3.207841e-14 7.8870573)
(-830666.5 0 7.0987249)
(-830687.5 -2.8613076e-14 7.0990982)
(-830708 -2.688007e-14 7.0994715)
(-830728.5 0 7.0998449)
(-830748.5 -2.3413383e-14 7.1002183)
(-830768.3 0 6.3116371)
(-830788 -1.99458e-14 6.4697683)
(-830806.5 1.8211675e-14 6.2333973)
(-830824.3 1.6477328e-14 5.7602778)
(-830840.95 -1.4742763e-14 5.2871084)
(-830855.95 0 4.6560568)
(-830869 1.1272988e-14 3.7092574)
(-830880.25 9.5377863e-15 2.3677357)
(-830885 0 1.2628588)
(-830860.6 0 4.8149025)
(-830949.3 0 -21.549796)
(-831607.92 -2.5945608e-15 -184.01179)
(-825717.43 -8.5662322e-16 456.97482)
(249858.25 0 228013.2)
(441767.95 3.2355853e-12 216436.23)
(253593.71 0 208931.12)
(27202.151 0 192213.64)
(-150029.54 0 166109.87)
(-298806.24 1.6182722e-12 139350.82)
(-421257.85 3.2355756e-12 113999.55)
(-519329.29 0 91256.721)
(-596370.52 4.8474565e-12 71745.492)
(-655936.54 0 55541.382)
(-701337.37 4.8400881e-12 42389.755)
(-735483.02 0 31923.356)
(-760818.53 3.22121e-12 23729.831)
(-779358.93 1.6091245e-12 17396.743)
(-792714.23 0 12549.098)
(-802154.46 3.212303e-12 8894.3932)
(-808674.63 0 6155.0779)
(-813034.75 4.8092786e-12 4136.1191)
(-815819.84 0 2649.9512)
(-817474.91 0 1591.5518)
(-818329.95 4.7953923e-12 833.35419)
(-818634.98 0 307.83092)
(-818575.01 4.7861093e-12 -37.542235)
(-818270.02 0 -262.8088)
(-817820.03 3.1845526e-12 -397.98753)
(-817300.03 0 -473.10321)
(-816755.03 0 -503.1667)
(-816210.03 3.1752855e-12 -503.19189)
(-815690.03 0 -480.68498)
(-815205.03 4.7536756e-12 -443.15365)
(-814765.03 0 -405.61857)
(-814370.02 4.7444316e-12 -368.07973)
(-814015.02 0 -323.02492)
(-813710.02 3.1567962e-12 -285.47818)
(-813445.02 1.5768596e-12 -247.92768)
(-813210.01 0 -210.37341)
(-813015.01 3.1475651e-12 -180.3291)
(-812855.01 0 -157.79587)
(-812715.01 1.5707068e-12 -127.74591)
(-812600.01 3.1383377e-12 -105.20779)
(-812505.01 0 -82.667402)
(-812425 3.1321868e-12 -75.155949)
(-812360 0 -60.127772)
(-812315 3.1260358e-12 -45.098088)
(-812280 0 -37.583624)
(-812245 3.1198842e-12 -30.068406)
(-812225 0 -22.552434)
(-812210 0 -15.03571)
(-812200 3.1106552e-12 -7.5182317)
(-812200 0 0)
(-812195 4.6567516e-12 0)
(-812200 -1.5507118e-12 7.5193624)
(-812210 4.6475186e-12 7.5197393)
(-812210 0 7.5201163)
(-812220 -1.5460945e-12 7.5204934)
(-812235 4.6336654e-12 15.041741)
(-812250 0 15.042495)
(-812265 3.0829514e-12 15.043249)
(-812275 0 15.044004)
(-812290 0 15.044758)
(-812310 3.0737105e-12 15.045513)
(-812325 0 15.046267)
(-812340 4.601322e-12 15.047022)
(-812360 -1.5322331e-12 15.047777)
(-812380 0 15.048532)
(-812395 0 22.57393)
(-812410 1.5276092e-12 15.050041)
(-812430 1.5260675e-12 15.050796)
(-812450 0 15.051552)
(-812470 0 15.052307)
(-812490 0 22.579593)
(-812505 3.0397979e-12 22.580726)
(-812520 0 22.581859)
(-812545 0 15.055328)
(-812565 0 22.584126)
(-812580 0 22.585259)
(-812600 3.0243678e-12 22.586393)
(-812615 0 15.058351)
(-812635 3.018193e-12 15.059107)
(-812660 0 22.589794)
(-812675 0 15.060619)
(-812690 0 22.592063)
(-812715 0 15.062131)
(-812735 0 22.594331)
(-812750 -1.4998297e-12 22.595466)
(-812770 0 22.5966)
(-812790 0 22.597735)
(-812805 2.9903876e-12 22.59887)
(-812825 0 15.06667)
(-812850 0 22.60114)
(-812865 0 22.602275)
(-812880 0 22.603411)
(-812905 -1.4874633e-12 15.069697)
(-812925 -1.4859166e-12 22.605682)
(-812940 0 22.606817)
(-812960 0 22.607953)
(-812980 -1.4812754e-12 22.609089)
(-813000 1.479728e-12 22.610225)
(-813015 0 22.611361)
(-813035 0 15.074998)
(-813055 0 22.613634)
(-813075 0 15.076513)
(-813095 4.4159634e-12 22.615907)
(-813110 0 15.078029)
(-813135 0 15.078787)
(-813155 -1.4673413e-12 22.619317)
(-813170 0 22.620454)
(-813185 0 15.081061)
(-813205 -1.4626932e-12 15.081819)
(-813230 0 22.623866)
(-813245 0 22.625003)
(-813265 0 15.084094)
(-813285 0 22.627278)
(-813305 0 15.085611)