/*--------------------------------*- C++ -*----------------------------------*\
  =========                 |
  \\      /  F ield         | OpenFOAM: The Open Source CFD Toolbox
   \\    /   O peration     | Website:  https://openfoam.org
    \\  /    A nd           | Version:  6
     \\/     M anipulation  |
\*---------------------------------------------------------------------------*/
FoamFile
{
    version     2.0;
    format      ascii;
    class       volScalarField;
    location    "10";
    object      p;
}
// * * * * * * * * * * * * * * * * * * * * * * * * * * * * * * * * * * * * * //

dimensions      [0 2 -2 0 0 0 0];

internalField   nonuniform List<scalar> 
15000
(
81414528
81465882
81504477
81517302
81511615
81489735
81454254
81407713
81352365
81290124
81222573
81150986
81076374
80999524
80921045
80841397
80760929
80679898
80598497
80516862
80435094
80353262
80271412
80189578
80107779
80026026
79944325
79862678
79781083
79699538
79618039
79536582
79455162
79373776
79292417
79211084
79129772
79048478
78967199
78885933
78804677
78723431
78642191
78560957
78479727
78398501
78317277
78236055
78154834
78073614
77992394
77911174
77829954
77748733
77667511
77586288
77505064
77423838
77342611
77261383
77180153
77098921
77017688
76936453
76855216
76773977
76692737
76611495
76530251
76449005
76367757
76286507
76205256
76124003
76042747
75961490
75880231
75798971
75717708
75636443
75555177
75473908
75392638
75311365
75230091
75148815
75067537
74986257
74904976
74823692
74742406
74661119
74579830
74498538
74417245
74335950
74254653
74173354
74092053
74010751
73929446
73848140
73766831
73685521
73604209
73522894
73441578
73360261
73278941
73197619
73116295
73034970
72953642
72872313
72790981
72709648
72628313
72546976
72465637
72384296
72302954
72221609
72140262
72058914
71977564
71896211
71814857
71733501
71652143
71570783
71489421
71408057
71326692
71245324
71163955
71082583
71001210
70919835
70838457
70757078
70675697
70594315
70512930
70431543
70350154
70268764
70187371
70105977
70024581
69943183
69861782
69780380
69698976
69617571
69536163
69454753
69373341
69291928
69210513
69129095
69047676
68966255
68884832
68803407
68721980
68640551
68559120
68477687
68396253
68314816
68233378
68151937
68070495
67989051
67907605
67826156
67744707
67663255
67581801
67500345
67418887
67337428
67255966
67174503
67093038
67011570
66930101
66848630
66767157
66685682
66604205
66522726
66441246
66359763
66278278
66196792
66115303
66033813
65952321
65870827
65789330
65707832
65626332
65544831
65463327
65381821
65300313
65218804
65137292
65055779
64974263
64892746
64811227
64729706
64648183
64566658
64485131
64403602
64322071
64240538
64159004
64077467
63995928
63914388
63832846
63751301
63669755
63588207
63506657
63425105
63343551
63261995
63180437
63098877
63017316
62935752
62854187
62772619
62691050
62609478
62527905
62446330
62364753
62283174
62201593
62120010
62038425
61956838
61875249
61793658
61712066
61630471
61548875
61467276
61385676
61304074
61222469
61140863
61059255
60977645
60896033
60814419
60732803
60651185
60569566
60487944
60406320
60324695
60243067
60161438
60079807
59998173
59916538
59834901
59753262
59671621
59589978
59508333
59426686
59345037
59263386
59181734
59100079
59018422
58936764
58855103
58773441
58691777
58610110
58528442
58446772
58365100
58283426
58201750
58120072
58038392
57956710
57875026
57793340
57711653
57629963
57548271
57466578
57384882
57303185
57221486
57139784
57058081
56976376
56894669
56812960
56731249
56649536
56567821
56486104
56404385
56322664
56240941
56159217
56077490
55995762
55914031
55832299
55750564
55668828
55587089
55505349
55423607
55341863
55260117
55178369
55096619
55014867
54933113
54851357
54769599
54687839
54606077
54524314
54442548
54360780
54279011
54197239
54115466
54033690
53951913
53870134
53788352
53706569
53624784
53542997
53461208
53379417
53297624
53215829
53134032
53052233
52970432
52888629
52806824
52725018
52643209
52561398
52479586
52397771
52315955
52234136
52152316
52070494
51988669
51906843
51825015
51743184
51661352
51579518
51497682
51415844
51334004
51252162
51170318
51088472
51006624
50924774
50842923
50761069
50679213
50597356
50515496
50433634
50351771
50269905
50188038
50106168
50024297
49942423
49860548
49778671
49696792
49614910
49533027
49451142
49369255
49287366
49205475
49123582
49041687
48959790
48877891
48795990
48714087
48632182
48550275
48468366
48386456
48304543
48222628
48140712
48058793
47976872
47894950
47813025
47731099
47649170
47567240
47485308
47403373
47321437
47239499
47157558
47075616
46993672
46911726
46829777
46747827
46665875
46583921
46501965
46420007
46338047
46256085
46174121
46092155
46010187
45928217
45846245
45764271
45682296
45600318
45518338
45436356
45354373
45272387
45190399
45108410
45026418
44944424
44862429
44780431
44698432
44616430
44534427
44452421
44370414
44288404
44206393
44124380
44042364
43960347
43878328
43796306
43714283
43632258
43550231
43468201
43386170
43304137
43222102
43140065
43058026
42975984
42893941
42811896
42729849
42647800
42565749
42483696
42401641
42319584
42237525
42155464
42073401
41991336
41909270
41827201
41745130
41663057
41580982
41498905
41416826
41334746
41252663
41170578
41088491
41006403
40924312
40842219
40760124
40678028
40595929
40513828
40431726
40349621
40267515
40185406
40103295
40021183
39939068
39856952
39774833
39692712
39610590
39528465
39446339
39364210
39282080
39199947
39117813
39035676
38953538
38871397
38789255
38707110
38624964
38542815
38460665
38378512
38296358
38214202
38132043
38049883
37967720
37885556
37803390
37721221
37639051
37556878
37474704
37392528
37310349
37228169
37145986
37063802
36981616
36899427
36817237
36735045
36652850
36570654
36488456
36406255
36324053
36241849
36159642
36077434
35995224
35913011
35830797
35748580
35666362
35584142
35501919
35419695
35337469
35255240
35173010
35090778
35008543
34926307
34844068
34761828
34679586
34597341
34515095
34432847
34350596
34268344
34186089
34103833
34021574
33939314
33857052
33774787
33692521
33610252
33527982
33445709
33363435
33281159
33198880
33116600
33034317
32952033
32869746
32787458
32705167
32622874
32540580
32458283
32375985
32293684
32211382
32129077
32046770
31964462
31882151
31799839
31717524
31635207
31552889
31470568
31388245
31305921
31223594
31141265
31058934
30976602
30894267
30811930
30729591
30647250
30564908
30482563
30400216
30317867
30235516
30153163
30070808
29988451
29906092
29823731
29741368
29659003
29576636
29494267
29411896
29329523
29247148
29164771
29082392
29000011
28917628
28835243
28752855
28670466
28588075
28505682
28423286
28340889
28258490
28176088
28093685
28011280
27928872
27846463
27764051
27681638
27599223
27516805
27434385
27351964
27269540
27187115
27104687
27022258
26939826
26857392
26774956
26692519
26610079
26527637
26445193
26362748
26280300
26197850
26115398
26032944
25950488
25868030
25785570
25703108
25620644
25538178
25455709
25373239
25290767
25208293
25125817
25043338
24960858
24878376
24795891
24713405
24630917
24548426
24465934
24383439
24300943
24218444
24135943
24053441
23970936
23888429
23805921
23723410
23640897
23558382
23475865
23393346
23310826
23228303
23145778
23063251
22980721
22898190
22815657
22733122
22650585
22568046
22485504
22402961
22320416
22237868
22155319
22072767
21990214
21907658
21825101
21742541
21659980
21577416
21494850
21412282
21329713
21247141
21164567
21081991
20999413
20916833
20834251
20751667
20669081
20586493
20503902
20421310
20338716
20256120
20173521
20090921
20008318
19925714
19843107
19760499
19677888
19595275
19512661
19430044
19347425
19264804
19182182
19099557
19016930
18934301
18851670
18769036
18686401
18603764
18521125
18438484
18355840
18273195
18190547
18107898
18025246
17942593
17859937
17777280
17694620
17611958
17529294
17446628
17363961
17281291
17198619
17115945
17033268
16950590
16867910
16785228
16702544
16619857
16537169
16454478
16371786
16289091
16206395
16123696
16040995
15958292
15875588
15792881
15710172
15627461
15544748
15462033
15379316
15296596
15213875
15131152
15048426
14965699
14882969
14800238
14717504
14634769
14552031
14469291
14386549
14303806
14221060
14138312
14055562
13972809
13890055
13807299
13724541
13641780
13559018
13476254
13393487
13310718
13227948
13145175
13062400
12979624
12896845
12814064
12731281
12648496
12565708
12482919
12400128
12317335
12234539
12151742
12068942
11986141
11903337
11820532
11737724
11654914
11572102
11489288
11406472
11323654
11240834
11158012
11075187
10992361
10909533
10826702
10743869
10661035
10578198
10495359
10412519
10329676
10246831
10163984
10081135
9998283.5
9915430.2
9832574.9
9749717.6
9666858.1
9583996.6
9501133
9418267.4
9335399.7
9252529.9
9169658
9086784.1
9003908.1
8921030
8838149.8
8755267.6
8672383.3
8589496.9
8506608.5
8423717.9
8340825.3
8257930.7
8175033.9
8092135.1
8009234.2
7926331.2
7843426.2
7760519.1
7677609.9
7594698.6
7511785.3
7428869.8
7345952.3
7263032.8
7180111.1
7097187.4
7014261.6
6931333.7
6848403.8
6765471.7
6682537.6
6599601.4
6516663.2
6433722.8
6350780.4
6267835.9
6184889.3
6101940.6
6018989.8
5936037
5853082.1
5770125.1
5687166
5604204.8
5521241.6
5438276.3
5355308.9
5272339.4
5189367.8
5106394.2
5023418.4
4940440.6
4857460.7
4774478.7
4691494.7
4608508.5
4525520.3
4442530
4359537.5
4276543.1
4193546.5
4110547.8
4027547.1
3944544.2
3861539.3
3778532.3
3695523.2
3612512
3529498.7
3446483.4
3363465.9
3280446.4
3197424.7
3114401
3031375.2
2948347.2
2865317.3
2782285.2
2699251
2616214.7
2533176.4
2450135.9
2367093.3
2284048.7
2201001.9
2117953.1
2034902.2
1951849.1
1868794
1785736.7
1702677.4
1619616
1536552.4
1453486.8
1370419.1
1287349.3
1204277.5
1121203.6
1038127.8
955049.94
871970.2
788888.64
705805.34
622720.45
539634.15
456546.65
373458.1
290369.65
207285.98
124179.79
40964.396
81425677
81475647
81514028
81526363
81519466
81496355
81459703
81412102
81355836
81292827
81224648
81152559
81077551
81000395
80921679
80841852
80761248
80680117
80598641
80516953
80435146
80353287
80271419
80189572
80107765
80026008
79944305
79862657
79781063
79699519
79618022
79536566
79455148
79373763
79292406
79211074
79129764
79048471
78967193
78885928
78804673
78723427
78642188
78560955
78479725
78398499
78317276
78236054
78154834
78073614
77992394
77911175
77829954
77748733
77667512
77586289
77505065
77423839
77342612
77261384
77180154
77098922
77017689
76936454
76855217
76773978
76692738
76611496
76530252
76449006
76367758
76286508
76205257
76124004
76042748
75961491
75880232
75798971
75717709
75636444
75555177
75473909
75392639
75311366
75230092
75148816
75067538
74986258
74904977
74823693
74742407
74661120
74579831
74498539
74417246
74335951
74254654
74173355
74092054
74010752
73929447
73848141
73766832
73685522
73604210
73522895
73441579
73360261
73278942
73197620
73116296
73034971
72953643
72872314
72790982
72709649
72628314
72546977
72465638
72384297
72302955
72221610
72140263
72058915
71977564
71896212
71814858
71733502
71652144
71570784
71489422
71408058
71326693
71245325
71163956
71082584
71001211
70919836
70838458
70757079
70675698
70594315
70512931
70431544
70350155
70268765
70187372
70105978
70024582
69943183
69861783
69780381
69698977
69617572
69536164
69454754
69373342
69291929
69210513
69129096
69047677
68966256
68884833
68803407
68721981
68640552
68559121
68477688
68396254
68314817
68233379
68151938
68070496
67989052
67907605
67826157
67744707
67663256
67581802
67500346
67418888
67337429
67255967
67174504
67093038
67011571
66930102
66848631
66767158
66685683
66604206
66522727
66441247
66359764
66278279
66196793
66115304
66033814
65952322
65870828
65789331
65707833
65626333
65544832
65463328
65381822
65300314
65218805
65137293
65055780
64974264
64892747
64811228
64729707
64648184
64566659
64485132
64403603
64322072
64240539
64159005
64077468
63995929
63914389
63832847
63751302
63669756
63588208
63506658
63425106
63343552
63261996
63180438
63098878
63017317
62935753
62854187
62772620
62691051
62609479
62527906
62446331
62364754
62283174
62201593
62120011
62038426
61956839
61875250
61793659
61712067
61630472
61548876
61467277
61385677
61304075
61222470
61140864
61059256
60977646
60896034
60814420
60732804
60651186
60569567
60487945
60406321
60324696
60243068
60161439
60079808
59998174
59916539
59834902
59753263
59671622
59589979
59508334
59426687
59345038
59263387
59181735
59100080
59018423
58936765
58855104
58773442
58691777
58610111
58528443
58446773
58365101
58283427
58201751
58120073
58038393
57956711
57875027
57793341
57711654
57629964
57548272
57466579
57384883
57303186
57221487
57139785
57058082
56976377
56894670
56812961
56731250
56649537
56567822
56486105
56404386
56322665
56240942
56159218
56077491
55995763
55914032
55832300
55750565
55668829
55587090
55505350
55423608
55341864
55260118
55178369
55096619
55014867
54933114
54851358
54769600
54687840
54606078
54524315
54442549
54360781
54279012
54197240
54115467
54033691
53951914
53870135
53788353
53706570
53624785
53542998
53461209
53379418
53297625
53215830
53134033
53052234
52970433
52888630
52806825
52725019
52643210
52561399
52479587
52397772
52315956
52234137
52152317
52070495
51988670
51906844
51825016
51743185
51661353
51579519
51497683
51415845
51334005
51252163
51170319
51088473
51006625
50924775
50842924
50761070
50679214
50597356
50515497
50433635
50351772
50269906
50188039
50106169
50024298
49942424
49860549
49778672
49696793
49614911
49533028
49451143
49369256
49287367
49205476
49123583
49041688
48959791
48877892
48795991
48714088
48632183
48550276
48468367
48386457
48304544
48222629
48140713
48058794
47976873
47894951
47813026
47731100
47649171
47567241
47485309
47403374
47321438
47239499
47157559
47075617
46993673
46911726
46829778
46747828
46665876
46583922
46501966
46420008
46338048
46256086
46174122
46092156
46010188
45928218
45846246
45764272
45682297
45600319
45518339
45436357
45354374
45272388
45190400
45108411
45026419
44944425
44862430
44780432
44698433
44616431
44534428
44452422
44370415
44288405
44206394
44124381
44042365
43960348
43878329
43796307
43714284
43632259
43550232
43468202
43386171
43304138
43222103
43140066
43058026
42975985
42893942
42811897
42729850
42647801
42565750
42483697
42401642
42319585
42237526
42155465
42073402
41991337
41909270
41827202
41745131
41663058
41580983
41498906
41416827
41334747
41252664
41170579
41088492
41006404
40924313
40842220
40760125
40678029
40595930
40513829
40431727
40349622
40267515
40185407
40103296
40021184
39939069
39856952
39774834
39692713
39610591
39528466
39446340
39364211
39282081
39199948
39117814
39035677
38953539
38871398
38789256
38707111
38624965
38542816
38460666
38378513
38296359
38214203
38132044
38049884
37967721
37885557
37803391
37721222
37639052
37556879
37474705
37392529
37310350
37228170
37145987
37063803
36981617
36899428
36817238
36735046
36652851
36570655
36488457
36406256
36324054
36241850
36159643
36077435
35995224
35913012
35830798
35748581
35666363
35584143
35501920
35419696
35337470
35255241
35173011
35090779
35008544
34926308
34844069
34761829
34679587
34597342
34515096
34432847
34350597
34268345
34186090
34103834
34021575
33939315
33857053
33774788
33692522
33610253
33527983
33445710
33363436
33281159
33198881
33116600
33034318
32952033
32869747
32787458
32705168
32622875
32540581
32458284
32375986
32293685
32211383
32129078
32046771
31964463
31882152
31799839
31717525
31635208
31552890
31470569
31388246
31305921
31223595
31141266
31058935
30976603
30894268
30811931
30729592
30647251
30564909
30482564
30400217
30317868
30235517
30153164
30070809
29988452
29906093
29823732
29741369
29659004
29576637
29494268
29411897
29329524
29247149
29164772
29082393
29000012
28917629
28835244
28752856
28670467
28588076
28505683
28423287
28340890
28258491
28176089
28093686
28011281
27928873
27846464
27764052
27681639
27599223
27516806
27434386
27351965
27269541
27187116
27104688
27022258
26939827
26857393
26774957
26692520
26610080
26527638
26445194
26362748
26280301
26197851
26115399
26032945
25950489
25868031
25785571
25703109
25620645
25538179
25455710
25373240
25290768
25208294
25125818
25043339
24960859
24878377
24795892
24713406
24630918
24548427
24465935
24383440
24300944
24218445
24135944
24053442
23970937
23888430
23805922
23723411
23640898
23558383
23475866
23393347
23310826
23228304
23145779
23063251
22980722
22898191
22815658
22733123
22650586
22568047
22485505
22402962
22320417
22237869
22155320
22072768
21990215
21907659
21825102
21742542
21659980
21577417
21494851
21412283
21329714
21247142
21164568
21081992
20999414
20916834
20834252
20751668
20669082
20586494
20503903
20421311
20338717
20256120
20173522
20090922
20008319
19925715
19843108
19760500
19677889
19595276
19512662
19430045
19347426
19264805
19182182
19099558
19016931
18934302
18851671
18769037
18686402
18603765
18521126
18438485
18355841
18273196
18190548
18107899
18025247
17942594
17859938
17777281
17694621
17611959
17529295
17446629
17363962
17281292
17198620
17115945
17033269
16950591
16867911
16785229
16702544
16619858
16537170
16454479
16371787
16289092
16206396
16123697
16040996
15958293
15875589
15792882
15710173
15627462
15544749
15462034
15379316
15296597
15213876
15131153
15048427
14965700
14882970
14800239
14717505
14634770
14552032
14469292
14386550
14303806
14221061
14138313
14055563
13972810
13890056
13807300
13724542
13641781
13559019
13476255
13393488
13310719
13227949
13145176
13062401
12979624
12896846
12814065
12731282
12648497
12565709
12482920
12400129
12317336
12234540
12151743
12068943
11986142
11903338
11820532
11737725
11654915
11572103
11489289
11406473
11323655
11240835
11158013
11075188
10992362
10909533
10826703
10743870
10661036
10578199
10495360
10412520
10329677
10246832
10163985
10081136
9998284.4
9915431.2
9832575.9
9749718.5
9666859.1
9583997.6
9501134
9418268.3
9335400.6
9252530.8
9169658.9
9086785
9003909
8921030.9
8838150.8
8755268.5
8672384.2
8589497.9
8506609.4
8423718.9
8340826.3
8257931.6
8175034.9
8092136
8009235.1
7926332.2
7843427.1
7760520
7677610.8
7594699.6
7511786.2
7428870.8
7345953.3
7263033.7
7180112.1
7097188.4
7014262.6
6931334.7
6848404.7
6765472.7
6682538.6
6599602.4
6516664.1
6433723.7
6350781.3
6267836.8
6184890.2
6101941.5
6018990.8
5936038
5853083
5770126
5687167
5604205.8
5521242.6
5438277.2
5355309.8
5272340.3
5189368.8
5106395.1
5023419.4
4940441.6
4857461.7
4774479.7
4691495.6
4608509.5
4525521.2
4442530.9
4359538.5
4276544
4193547.4
4110548.8
4027548
3944545.2
3861540.3
3778533.2
3695524.1
3612513
3529499.7
3446484.3
3363466.8
3280447.3
3197425.7
3114401.9
3031376.1
2948348.2
2865318.2
2782286.1
2699251.9
2616215.7
2533177.3
2450136.8
2367094.3
2284049.6
2201002.9
2117954
2034903.1
1951850.1
1868794.9
1785737.7
1702678.3
1619616.9
1536553.4
1453487.7
1370420
1287350.2
1204278.4
1121204.5
1038128.6
955050.76
871970.99
788889.37
705806.01
622721.04
539634.62
456546.95
373458.26
290370.26
207283.25
124156.48
41022.281
81444929
81494738
81532331
81542926
81533758
81508310
81469449
81419876
81361927
81297526
81228222
81155240
81079536
81001842
80922717
80842582
80761749
80680449
80598850
80517074
80435205
80353303
80271407
80189543
80107726
80025963
79944258
79862611
79781019
79699479
79617985
79536533
79455119
79373738
79292384
79211056
79129748
79048457
78967182
78885919
78804666
78723421
78642183
78560951
78479722
78398497
78317274
78236053
78154833
78073614
77992394
77911175
77829955
77748734
77667512
77586290
77505066
77423840
77342613
77261385
77180155
77098923
77017690
76936455
76855218
76773980
76692739
76611497
76530253
76449007
76367760
76286510
76205259
76124005
76042750
75961493
75880234
75798973
75717710
75636446
75555179
75473911
75392640
75311368
75230094
75148818
75067540
74986260
74904978
74823695
74742409
74661122
74579832
74498541
74417248
74335953
74254656
74173357
74092056
74010753
73929449
73848142
73766834
73685523
73604211
73522897
73441581
73360263
73278943
73197622
73116298
73034972
72953645
72872315
72790984
72709651
72628316
72546979
72465640
72384299
72302956
72221612
72140265
72058917
71977566
71896214
71814860
71733504
71652145
71570786
71489424
71408060
71326694
71245327
71163957
71082586
71001212
70919837
70838460
70757081
70675700
70594317
70512932
70431546
70350157
70268766
70187374
70105980
70024583
69943185
69861785
69780383
69698979
69617573
69536165
69454756
69373344
69291931
69210515
69129098
69047679
68966257
68884834
68803409
68721982
68640553
68559123
68477690
68396255
68314819
68233380
68151940
68070498
67989053
67907607
67826159
67744709
67663257
67581803
67500348
67418890
67337430
67255969
67174505
67093040
67011573
66930104
66848633
66767160
66685685
66604208
66522729
66441248
66359766
66278281
66196794
66115306
66033816
65952323
65870829
65789333
65707835
65626335
65544833
65463329
65381824
65300316
65218806
65137295
65055781
64974266
64892749
64811229
64729708
64648185
64566660
64485133
64403604
64322074
64240541
64159006
64077470
63995931
63914391
63832848
63751304
63669758
63588210
63506659
63425107
63343553
63261998
63180440
63098880
63017318
62935755
62854189
62772622
62691052
62609481
62527908
62446332
62364755
62283176
62201595
62120012
62038427
61956840
61875252
61793661
61712068
61630474
61548877
61467279
61385679
61304076
61222472
61140866
61059258
60977648
60896036
60814422
60732806
60651188
60569568
60487947
60406323
60324697
60243070
60161441
60079809
59998176
59916541
59834903
59753264
59671623
59589980
59508335
59426688
59345040
59263389
59181736
59100082
59018425
58936766
58855106
58773444
58691779
58610113
58528445
58446774
58365102
58283428
58201752
58120074
58038394
57956712
57875029
57793343
57711655
57629966
57548274
57466580
57384885
57303188
57221488
57139787
57058084
56976379
56894671
56812962
56731251
56649538
56567823
56486106
56404388
56322667
56240944
56159219
56077493
55995764
55914034
55832301
55750567
55668830
55587092
55505352
55423610
55341865
55260119
55178371
55096621
55014869
54933115
54851359
54769601
54687842
54606080
54524316
54442551
54360783
54279013
54197242
54115468
54033693
53951916
53870136
53788355
53706572
53624787
53542999
53461210
53379419
53297626
53215831
53134034
53052235
52970435
52888632
52806827
52725020
52643212
52561401
52479588
52397774
52315957
52234139
52152319
52070496
51988672
51906846
51825017
51743187
51661355
51579521
51497685
51415847
51334007
51252165
51170321
51088475
51006627
50924777
50842925
50761072
50679216
50597358
50515499
50433637
50351773
50269908
50188040
50106171
50024299
49942426
49860551
49778673
49696794
49614913
49533030
49451145
49369257
49287368
49205477
49123584
49041689
48959792
48877893
48795992
48714090
48632185
48550278
48468369
48386458
48304546
48222631
48140714
48058796
47976875
47894953
47813028
47731102
47649173
47567243
47485310
47403376
47321439
47239501
47157561
47075619
46993674
46911728
46829780
46747830
46665878
46583924
46501968
46420009
46338049
46256087
46174124
46092158
46010190
45928220
45846248
45764274
45682298
45600320
45518341
45436359
45354375
45272390
45190402
45108412
45026421
44944427
44862431
44780434
44698434
44616433
44534429
44452424
44370416
44288407
44206396
44124382
44042367
43960350
43878330
43796309
43714286
43632260
43550233
43468204
43386173
43304140
43222104
43140067
43058028
42975987
42893944
42811899
42729852
42647803
42565752
42483699
42401644
42319587
42237528
42155467
42073404
41991339
41909272
41827203
41745132
41663060
41580985
41498908
41416829
41334748
41252666
41170581
41088494
41006405
40924315
40842222
40760127
40678030
40595932
40513831
40431728
40349624
40267517
40185409
40103298
40021185
39939071
39856954
39774836
39692715
39610592
39528468
39446341
39364213
39282082
39199950
39117815
39035679
38953540
38871400
38789257
38707113
38624966
38542818
38460668
38378515
38296361
38214204
38132046
38049885
37967723
37885559
37803392
37721224
37639053
37556881
37474707
37392530
37310352
37228171
37145989
37063805
36981618
36899430
36817240
36735047
36652853
36570657
36488458
36406258
36324056
36241851
36159645
36077436
35995226
35913014
35830799
35748583
35666365
35584144
35501922
35419698
35337471
35255243
35173013
35090780
35008546
34926309
34844071
34761831
34679588
34597344
34515098
34432849
34350599
34268346
34186092
34103836
34021577
33939317
33857054
33774790
33692523
33610255
33527985
33445712
33363438
33281161
33198883
33116602
33034320
32952035
32869749
32787460
32705170
32622877
32540583
32458286
32375987
32293687
32211384
32129080
32046773
31964464
31882154
31799841
31717527
31635210
31552891
31470571
31388248
31305923
31223596
31141268
31058937
30976604
30894269
30811933
30729594
30647253
30564910
30482565
30400218
30317870
30235519
30153166
30070811
29988454
29906095
29823734
29741371
29659006
29576639
29494270
29411899
29329526
29247151
29164774
29082395
29000014
28917630
28835245
28752858
28670469
28588078
28505684
28423289
28340892
28258492
28176091
28093688
28011282
27928875
27846466
27764054
27681641
27599225
27516808
27434388
27351967
27269543
27187117
27104690
27022260
26939828
26857395
26774959
26692521
26610082
26527640
26445196
26362750
26280302
26197852
26115400
26032947
25950491
25868033
25785573
25703110
25620646
25538180
25455712
25373242
25290770
25208296
25125819
25043341
24960861
24878378
24795894
24713408
24630919
24548429
24465936
24383442
24300945
24218447
24135946
24053443
23970939
23888432
23805923
23723412
23640900
23558385
23475868
23393349
23310828
23228305
23145780
23063253
22980724
22898193
22815660
22733125
22650587
22568048
22485507
22402964
22320418
22237871
22155321
22072770
21990216
21907661
21825103
21742544
21659982
21577418
21494853
21412285
21329715
21247143
21164569
21081994
20999416
20916836
20834254
20751669
20669083
20586495
20503905
20421313
20338718
20256122
20173524
20090923
20008321
19925716
19843110
19760501
19677891
19595278
19512663
19430047
19347428
19264807
19182184
19099559
19016932
18934303
18851672
18769039
18686404
18603767
18521128
18438486
18355843
18273198
18190550
18107901
18025249
17942595
17859940
17777282
17694622
17611961
17529297
17446631
17363963
17281293
17198621
17115947
17033271
16950593
16867913
16785230
16702546
16619860
16537171
16454481
16371788
16289094
16206397
16123699
16040998
15958295
15875590
15792883
15710174
15627463
15544750
15462035
15379318
15296599
15213878
15131154
15048429
14965702
14882972
14800241
14717507
14634771
14552034
14469294
14386552
14303808
14221062
14138314
14055564
13972812
13890058
13807302
13724543
13641783
13559021
13476256
13393490
13310721
13227950
13145178
13062403
12979626
12896847
12814066
12731283
12648498
12565711
12482922
12400131
12317337
12234542
12151745
12068945
11986143
11903340
11820534
11737726
11654917
11572105
11489291
11406475
11323657
11240836
11158014
11075190
10992364
10909535
10826705
10743872
10661037
10578201
10495362
10412521
10329678
10246833
10163986
10081137
9998286.1
9915432.9
9832577.6
9749720.2
9666860.7
9583999.2
9501135.6
9418270
9335402.3
9252532.5
9169660.6
9086786.7
9003910.7
8921032.6
8838152.4
8755270.2
8672385.9
8589499.5
8506611.1
8423720.6
8340828
8257933.3
8175036.5
8092137.7
8009236.8
7926333.8
7843428.8
7760521.7
7677612.5
7594701.2
7511787.9
7428872.5
7345955
7263035.4
7180113.7
7097190
7014264.2
6931336.3
6848406.4
6765474.3
6682540.2
6599604
6516665.8
6433725.4
6350783
6267838.5
6184891.9
6101943.2
6018992.5
5936039.6
5853084.7
5770127.7
5687168.6
5604207.5
5521244.2
5438278.9
5355311.5
5272342
5189370.4
5106396.8
5023421
4940443.2
4857463.3
4774481.3
4691497.3
4608511.1
4525522.9
4442532.6
4359540.2
4276545.7
4193549.1
4110550.4
4027549.7
3944546.8
3861541.9
3778534.9
3695525.8
3612514.6
3529501.3
3446486
3363468.5
3280449
3197427.3
3114403.6
3031377.8
2948349.9
2865319.9
2782287.8
2699253.6
2616217.3
2533179
2450138.5
2367096
2284051.3
2201004.6
2117955.7
2034904.8
1951851.7
1868796.6
1785739.3
1702680
1619618.6
1536555
1453489.4
1370421.7
1287351.9
1204280
1121206.1
1038130.2
955052.25
871972.41
788890.7
705807.23
622722.12
539635.52
456547.59
373458.59
290370.47
207282.21
124148.33
41036.192
81474560
81524446
81560601
81568220
81555458
81526350
81484067
81431477
81370974
81304474
81233485
81159174
81082436
81003949
80924222
80843635
80762466
80680919
80599142
80517238
80435281
80353318
80271382
80189493
80107661
80025892
79944185
79862540
79780952
79699417
79617929
79536484
79455075
79373699
79292351
79211027
79129724
79048437
78967165
78885905
78804654
78723412
78642176
78560945
78479718
78398494
78317272
78236052
78154832
78073613
77992395
77911175
77829956
77748735
77667514
77586291
77505067
77423842
77342615
77261387
77180157
77098926
77017692
76936457
76855221
76773982
76692742
76611500
76530256
76449010
76367762
76286513
76205261
76124008
76042753
75961495
75880237
75798976
75717713
75636448
75555182
75473913
75392643
75311371
75230096
75148820
75067542
74986263
74904981
74823697
74742412
74661124
74579835
74498543
74417250
74335955
74254658
74173359
74092058
74010756
73929451
73848145
73766836
73685526
73604214
73522900
73441584
73360266
73278946
73197624
73116300
73034975
72953647
72872318
72790987
72709653
72628318
72546981
72465642
72384302
72302959
72221614
72140268
72058919
71977569
71896216
71814862
71733506
71652148
71570788
71489426
71408062
71326697
71245329
71163960
71082588
71001215
70919840
70838463
70757084
70675703
70594320
70512935
70431548
70350159
70268769
70187376
70105982
70024586
69943188
69861788
69780386
69698982
69617576
69536168
69454758
69373347
69291933
69210518
69129100
69047681
68966260
68884837
68803412
68721985
68640556
68559125
68477692
68396258
68314821
68233383
68151942
68070500
67989056
67907610
67826162
67744712
67663260
67581806
67500350
67418893
67337433
67255971
67174508
67093043
67011575
66930106
66848635
66767162
66685687
66604210
66522731
66441251
66359768
66278283
66196797
66115309
66033818
65952326
65870832
65789336
65707838
65626338
65544836
65463332
65381826
65300318
65218809
65137297
65055784
64974268
64892751
64811232
64729711
64648188
64566663
64485136
64403607
64322076
64240543
64159009
64077472
63995934
63914393
63832851
63751306