/*--------------------------------*- C++ -*----------------------------------*\
  =========                 |
  \\      /  F ield         | OpenFOAM: The Open Source CFD Toolbox
   \\    /   O peration     | Website:  https://openfoam.org
    \\  /    A nd           | Version:  6
     \\/     M anipulation  |
\*---------------------------------------------------------------------------*/
FoamFile
{
    version     2.0;
    format      ascii;
    class       surfaceScalarField;
    location    "10";
    object      phi;
}
// * * * * * * * * * * * * * * * * * * * * * * * * * * * * * * * * * * * * * //

dimensions      [0 3 -1 0 0 0 0];

internalField   nonuniform List<scalar> 
28985
(
0.01032107
-0.0003284776
0.011147954
-0.00082688366
0.012322574
-0.0011746203
0.013704658
-0.001382084
0.01517709
-0.001472432
0.016652154
-0.0014750634
0.018068896
-0.0014167428
0.019388838
-0.0013199417
0.020590933
-0.0012020945
0.021666775
-0.001075842
0.022616574
-0.00094979946
0.023446029
-0.00082945532
0.024164031
-0.00071800175
0.024781052
-0.00061702113
0.025308068
-0.00052701565
0.025755864
-0.00044779665
0.026134625
-0.00037876037
0.026453702
-0.00031907733
0.026721521
-0.00026781845
0.026945557
-0.00022403629
0.027132372
-0.00018681504
0.027287671
-0.00015529941
0.027416381
-0.00012870939
0.027522727
-0.0001063458
0.027610317
-8.7590085e-05
0.027682217
-7.1900625e-05
0.027741024
-5.8807031e-05
0.027788928
-4.7903576e-05
0.02782777
-3.8842308e-05
0.027859096
-3.1326243e-05
0.027884199
-2.5103011e-05
0.027904158
-1.9958957e-05
0.027919872
-1.5713772e-05
0.027932088
-1.2215778e-05
0.027941426
-9.3377326e-06
0.027948399
-6.9731282e-06
0.027953432
-5.0330485e-06
0.027956875
-3.4434272e-06
0.027959018
-2.1426577e-06
0.027960098
-1.0796234e-06
0.027960309
-2.1199126e-07
0.027959814
4.9527298e-07
0.027958743
1.0710867e-06
0.027957204
1.5392781e-06
0.027955284
1.919487e-06
0.027953057
2.2278488e-06
0.027950579
2.4775976e-06
0.027947899
2.6796078e-06
0.027945057
2.8427739e-06
0.027942082
2.9743579e-06
0.027939002
3.0803152e-06
0.027935836
3.1654948e-06
0.027932603
3.2338357e-06
0.027929314
3.2885677e-06
0.027925982
3.3323065e-06
0.027922614
3.3671638e-06
0.02791922
3.394876e-06
0.027915803
3.4168402e-06
0.027912369
3.4341747e-06
0.027908921
3.4478069e-06
0.027905462
3.4584758e-06
0.027901996
3.466765e-06
0.027898522
3.4731681e-06
0.027895044
3.478072e-06
0.027891563
3.4817752e-06
0.027888078
3.4845401e-06
0.027884591
3.4865665e-06
0.027881103
3.4880013e-06
0.027877614
3.4889843e-06
0.027874125
3.4896167e-06
0.027870635
3.489966e-06
0.027867145
3.4901085e-06
0.027863655
3.4900946e-06
0.027860165
3.489951e-06
0.027856675
3.4897216e-06
0.027853186
3.4894308e-06
0.027849696
3.4890846e-06
0.027846208
3.4887106e-06
0.027842719
3.48832e-06
0.027839232
3.4879087e-06
0.027835744
3.487496e-06
0.027832257
3.487087e-06
0.02782877
3.4866727e-06
0.027825284
3.4862684e-06
0.027821798
3.4858758e-06
0.027818313
3.485483e-06
0.027814828
3.4851032e-06
0.027811343
3.4847364e-06
0.027807858
3.4843698e-06
0.027804374
3.4840157e-06
0.027800891
3.4836738e-06
0.027797407
3.4833305e-06
0.027793924
3.482998e-06
0.027790442
3.4826756e-06
0.027786959
3.4823499e-06
0.027783477
3.4820333e-06
0.027779996
3.4817252e-06
0.027776514
3.4814125e-06
0.027773033
3.4811075e-06
0.027769552
3.4808096e-06
0.027766072
3.4805059e-06
0.027762592
3.4802088e-06
0.027759112
3.4799181e-06
0.027755632
3.4796206e-06
0.027752153
3.4793291e-06
0.027748674
3.4790432e-06
0.027745195
3.47875e-06
0.027741716
3.4784621e-06
0.027738238
3.4781792e-06
0.02773476
3.4778886e-06
0.027731283
3.4776028e-06
0.027727805
3.4773215e-06
0.027724328
3.4770319e-06
0.027720852
3.4767467e-06
0.027717375
3.4764659e-06
0.027713899
3.4761769e-06
0.027710423
3.4758923e-06
0.027706948
3.4756123e-06
0.027703472
3.4753242e-06
0.027699997
3.4750408e-06
0.027696522
3.474762e-06
0.027693048
3.4744752e-06
0.027689574
3.474193e-06
0.0276861
3.4739153e-06
0.027682626
3.4736293e-06
0.027679153
3.4733477e-06
0.02767568
3.4730706e-06
0.027672207
3.4727852e-06
0.027668734
3.4725041e-06
0.027665262
3.4722273e-06
0.02766179
3.4719419e-06
0.027658319
3.4716606e-06
0.027654847
3.4713832e-06
0.027651376
3.471097e-06
0.027647905
3.4708149e-06
0.027644435
3.4705367e-06
0.027640965
3.4702499e-06
0.027637495
3.4699672e-06
0.027634025
3.4696887e-06
0.027630556
3.4694017e-06
0.027627086
3.4691189e-06
0.027623618
3.4688402e-06
0.027620149
3.4685529e-06
0.027616681
3.4682697e-06
0.027613213
3.4679907e-06
0.027609745
3.4677034e-06
0.027606278
3.4674204e-06
0.02760281
3.4671418e-06
0.027599344
3.4668548e-06
0.027595877
3.4665721e-06
0.027592411
3.4662938e-06
0.027588945
3.466007e-06
0.027585479
3.4657245e-06
0.027582014
3.4654464e-06
0.027578548
3.4651598e-06
0.027575084
3.4648774e-06
0.027571619
3.4645993e-06
0.027568155
3.4643128e-06
0.027564691
3.4640307e-06
0.027561227
3.4637531e-06
0.027557763
3.463467e-06
0.0275543
3.4631851e-06
0.027550837
3.4629074e-06
0.027547375
3.4626212e-06
0.027543912
3.4623392e-06
0.02754045
3.4620615e-06
0.027536988
3.4617754e-06
0.027533527
3.4614936e-06
0.027530066
3.4612162e-06
0.027526605
3.4609305e-06
0.027523144
3.460649e-06
0.027519684
3.4603716e-06
0.027516224
3.4600856e-06
0.027512764
3.4598036e-06
0.027509304
3.4595257e-06
0.027505845
3.4592393e-06
0.027502386
3.4589571e-06
0.027498928
3.4586794e-06
0.027495469
3.4583935e-06
0.027492011
3.4581122e-06
0.027488553
3.4578353e-06
0.027485096
3.4575501e-06
0.027481638
3.4572692e-06
0.027478181
3.4569923e-06
0.027474725
3.4567066e-06
0.027471268
3.4564249e-06
0.027467812
3.4561473e-06
0.027464356
3.4558611e-06
0.027460901
3.4555793e-06
0.027457445
3.4553018e-06
0.02745399
3.4550159e-06
0.027450536
3.4547344e-06
0.027447081
3.4544571e-06
0.027443627
3.4541714e-06
0.027440173
3.4538899e-06
0.027436719
3.4536127e-06
0.027433266
3.4533271e-06
0.027429813
3.4530457e-06
0.02742636
3.4527685e-06
0.027422908
3.4524828e-06
0.027419456
3.4522011e-06
0.027416004
3.4519235e-06
0.027412552
3.4516372e-06
0.027409101
3.4513549e-06
0.02740565
3.4510766e-06
0.027402199
3.4507897e-06
0.027398748
3.4505071e-06
0.027395298
3.450229e-06
0.027391848
3.4499427e-06
0.027388399
3.4496608e-06
0.027384949
3.4493834e-06
0.0273815
3.4490977e-06
0.027378051
3.448816e-06
0.027374603
3.4485383e-06
0.027371154
3.4482518e-06
0.027367706
3.4479693e-06
0.027364259
3.4476907e-06
0.027360811
3.4474037e-06
0.027357364
3.4471211e-06
0.027353917
3.446843e-06
0.027350471
3.4465568e-06
0.027347025
3.4462752e-06
0.027343579
3.445998e-06
0.027340133
3.4457128e-06
0.027336687
3.4454321e-06
0.027333242
3.4451557e-06
0.027329797
3.4448711e-06
0.027326353
3.4445907e-06
0.027322909
3.4443146e-06
0.027319464
3.44403e-06
0.027316021
3.4437495e-06
0.027312577
3.443473e-06
0.027309134
3.4431877e-06
0.027305691
3.4429063e-06
0.027302249
3.4426289e-06
0.027298806
3.4423428e-06
0.027295364
3.4420609e-06
0.027291922
3.4417833e-06
0.027288481
3.4414976e-06
0.02728504
3.4412162e-06
0.027281599
3.4409394e-06
0.027278158
3.4406543e-06
0.027274718
3.4403734e-06
0.027271278
3.4400968e-06
0.027267838
3.4398115e-06
0.027264398
3.4395304e-06
0.027260959
3.4392534e-06
0.02725752
3.438968e-06
0.027254081
3.438687e-06
0.027250643
3.4384104e-06
0.027247205
3.4381254e-06
0.027243767
3.4378447e-06
0.027240329
3.4375683e-06
0.027236892
3.4372834e-06
0.027233455
3.4370029e-06
0.027230018
3.4367266e-06
0.027226582
3.436442e-06
0.027223146
3.4361618e-06
0.02721971
3.4358859e-06
0.027216274
3.4356016e-06
0.027212839
3.4353215e-06
0.027209404
3.4350455e-06
0.027205969
3.4347609e-06
0.027202535
3.4344802e-06
0.0271991
3.4342035e-06
0.027195667
3.4339183e-06
0.027192233
3.4336372e-06
0.0271888
3.4333604e-06
0.027185366
3.4330753e-06
0.027181934
3.4327946e-06
0.027178501
3.4325183e-06
0.027175069
3.4322336e-06
0.027171637
3.431953e-06
0.027168205
3.4316764e-06
0.027164774
3.4313912e-06
0.027161343
3.4311099e-06
0.027157912
3.4308326e-06
0.027154481
3.4305469e-06
0.027151051
3.4302655e-06
0.027147621
3.4299883e-06
0.027144191
3.4297029e-06
0.027140762
3.4294218e-06
0.027137333
3.4291449e-06
0.027133904
3.4288597e-06
0.027130475
3.4285788e-06
0.027127047
3.4283022e-06
0.027123619
3.4280173e-06
0.027120191
3.4277368e-06
0.027116764
3.4274605e-06
0.027113337
3.427176e-06
0.02710991
3.4268955e-06
0.027106483
3.4266191e-06
0.027103057
3.4263341e-06
0.027099631
3.426053e-06
0.027096205
3.4257758e-06
0.02709278
3.4254902e-06
0.027089354
3.4252086e-06
0.027085929
3.4249314e-06
0.027082505
3.4246461e-06
0.02707908
3.4243652e-06
0.027075656
3.4240888e-06
0.027072233
3.4238043e-06
0.027068809
3.4235241e-06
0.027065386
3.4232481e-06
0.027061963
3.4229637e-06
0.02705854
3.4226832e-06
0.027055118
3.4224067e-06
0.027051696
3.4221216e-06
0.027048274
3.4218408e-06
0.027044852
3.4215642e-06
0.027041431
3.4212792e-06
0.02703801
3.4209985e-06
0.027034589
3.4207221e-06
0.027031169
3.4204373e-06
0.027027749
3.4201568e-06
0.027024329
3.4198805e-06
0.027020909
3.4195959e-06
0.02701749
3.4193155e-06
0.027014071
3.4190393e-06
0.027010652
3.4187549e-06
0.027007234
3.4184746e-06
0.027003815
3.4181985e-06
0.027000397
3.4179141e-06
0.02699698
3.4176339e-06
0.026993562
3.4173579e-06
0.026990145
3.4170736e-06
0.026986729
3.4167935e-06
0.026983312
3.4165173e-06
0.026979896
3.4162327e-06
0.02697648
3.415952e-06
0.026973064
3.4156754e-06
0.026969649
3.4153903e-06
0.026966234
3.4151095e-06
0.026962819
3.4148328e-06
0.026959404
3.4145478e-06
0.02695599
3.4142671e-06
0.026952576
3.4139906e-06
0.026949162
3.4137059e-06
0.026945749
3.4134256e-06
0.026942336
3.4131498e-06
0.026938923
3.4128659e-06
0.02693551
3.4125862e-06
0.026932098
3.4123109e-06
0.026928686
3.4120275e-06
0.026925274
3.4117483e-06
0.026921863
3.4114735e-06
0.026918452
3.4111904e-06
0.026915041
3.4109113e-06
0.02691163
3.4106362e-06
0.02690822
3.4103527e-06
0.02690481
3.4100732e-06
0.0269014
3.4097979e-06
0.02689799
3.4095144e-06
0.026894581
3.4092352e-06
0.026891172
3.4089603e-06
0.026887763
3.4086771e-06
0.026884355
3.408398e-06
0.026880947
3.408123e-06
0.026877539
3.4078395e-06
0.026874132
3.4075599e-06
0.026870724
3.4072843e-06
0.026867317
3.4070001e-06
0.026863911
3.4067201e-06
0.026860504
3.406444e-06
0.026857098
3.4061595e-06
0.026853692
3.405879e-06
0.026850286
3.4056025e-06
0.026846881
3.4053176e-06
0.026843476
3.405037e-06
0.026840071
3.4047606e-06
0.026836667
3.4044759e-06
0.026833263
3.4041954e-06
0.026829859
3.4039192e-06
0.026826455
3.4036347e-06
0.026823052
3.4033546e-06
0.026819649
3.4030788e-06
0.026816246
3.4027948e-06
0.026812843
3.4025149e-06
0.026809441
3.4022391e-06
0.026806039
3.401955e-06
0.026802637
3.401675e-06
0.026799236
3.4013993e-06
0.026795835
3.4011153e-06
0.026792434
3.4008357e-06
0.026789034
3.4005603e-06
0.026785633
3.4002767e-06
0.026782233
3.3999972e-06
0.026778834
3.3997217e-06
0.026775434
3.3994377e-06
0.026772035
3.3991576e-06
0.026768636
3.3988815e-06
0.026765237
3.3985969e-06
0.026761839
3.3983164e-06
0.026758441
3.3980399e-06
0.026755043
3.3977551e-06
0.026751646
3.3974743e-06
0.026748249
3.3971976e-06
0.026744852
3.3969128e-06
0.026741455
3.3966322e-06
0.026738059
3.396356e-06
0.026734663
3.3960717e-06
0.026731267
3.3957917e-06
0.026727871
3.3955161e-06
0.026724476
3.3952325e-06
0.026721081
3.3949533e-06
0.026717687
3.3946786e-06
0.026714292
3.3943956e-06
0.026710898
3.3941169e-06
0.026707504
3.3938424e-06
0.026704111
3.3935595e-06
0.026700717
3.3932808e-06
0.026697324
3.3930063e-06
0.026693932
3.3927235e-06
0.026690539
3.3924449e-06
0.026687147
3.3921705e-06
0.026683755
3.3918878e-06
0.026680364
3.3916092e-06
0.026676972
3.3913346e-06
0.026673581
3.3910515e-06
0.02667019
3.3907723e-06
0.0266668
3.3904971e-06
0.02666341
3.3902135e-06
0.02666002
3.389934e-06
0.02665663
3.3896586e-06
0.026653241
3.3893747e-06
0.026649852
3.389095e-06
0.026646463
3.3888193e-06
0.026643074
3.3885353e-06
0.026639686
3.3882555e-06
0.026636298
3.38798e-06
0.02663291
3.3876962e-06
0.026629523
3.3874166e-06
0.026626136
3.3871413e-06
0.026622749
3.3868578e-06
0.026619362
3.3865786e-06
0.026615976
3.3863036e-06
0.02661259
3.3860205e-06
0.026609204
3.3857415e-06
0.026605819
3.3854667e-06
0.026602434
3.3851835e-06
0.026599049
3.3849045e-06
0.026595664
3.3846297e-06
0.02659228
3.3843467e-06
0.026588896
3.3840679e-06
0.026585512
3.3837933e-06
0.026582128
3.3835104e-06
0.026578745
3.3832315e-06
0.026575362
3.3829566e-06
0.026571979
3.3826731e-06
0.026568597
3.3823936e-06
0.026565215
3.382118e-06
0.026561833
3.3818339e-06
0.026558452
3.3815537e-06
0.02655507
3.3812777e-06
0.026551689
3.3809932e-06
0.026548309
3.3807128e-06
0.026544928
3.3804366e-06
0.026541548
3.3801521e-06
0.026538168
3.379872e-06
0.026534789
3.3795961e-06
0.026531409
3.3793122e-06
0.02652803
3.3790325e-06
0.026524651
3.3787573e-06
0.026521273
3.3784741e-06
0.026517895
3.3781954e-06
0.026514517
3.377921e-06
0.026511139
3.3776385e-06
0.026507762
3.3773603e-06
0.026504385
3.3770862e-06
0.026501008
3.3768039e-06
0.026497631
3.3765257e-06
0.026494255
3.3762516e-06
0.026490879
3.3759693e-06
0.026487504
3.375691e-06
0.026484128
3.3754169e-06
0.026480753
3.3751345e-06
0.026477378
3.3748561e-06
0.026474004
3.3745817e-06
0.026470629
3.3742989e-06
0.026467255
3.3740201e-06
0.026463881
3.3737452e-06
0.026460508
3.373462e-06
0.026457135
3.3731829e-06
0.026453762
3.3729079e-06
0.026450389
3.3726246e-06
0.026447017
3.3723454e-06
0.026443645
3.3720703e-06
0.026440273
3.371787e-06
0.026436902
3.3715078e-06
0.02643353
3.3712329e-06
0.026430159
3.3709498e-06
0.026426789
3.3706708e-06
0.026423418
3.3703961e-06
0.026420048
3.3701133e-06
0.026416678
3.3698347e-06
0.026413309
3.3695603e-06
0.02640994
3.3692778e-06
0.026406571
3.3689993e-06
0.026403202
3.3687251e-06
0.026399833
3.3684425e-06
0.026396465
3.3681641e-06
0.026393097
3.3678898e-06
0.02638973
3.3676072e-06
0.026386362
3.3673289e-06
0.026382995
3.3670546e-06
0.026379629
3.3667721e-06
0.026376262
3.3664936e-06
0.026372896
3.3662191e-06
0.02636953
3.3659361e-06
0.026366164
3.3656571e-06
0.026362799
3.365382e-06
0.026359434
3.3650985e-06
0.026356069
3.3648191e-06
0.026352704
3.3645436e-06
0.02634934
3.3642598e-06
0.026345976
3.3639802e-06
0.026342612
3.3637047e-06
0.026339249
3.3634211e-06
0.026335886
3.3631417e-06
0.026332523
3.3628665e-06
0.02632916
3.3625833e-06
0.026325798
3.3623045e-06
0.026322436
3.36203e-06
0.026319074
3.3617475e-06
0.026315713
3.3614695e-06
0.026312352
3.3611957e-06
0.026308991
3.3609139e-06
0.02630563
3.3606362e-06
0.02630227
3.3603627e-06
0.02629891
3.360081e-06
0.02629555
3.3598033e-06
0.02629219
3.3595297e-06
0.026288831
3.3592478e-06
0.026285472
3.35897e-06
0.026282113
3.3586963e-06
0.026278755
3.3584143e-06
0.026275397
3.3581363e-06
0.026272039
3.3578623e-06
0.026268681
3.35758e-06
0.026265324
3.3573017e-06
0.026261967
3.3570274e-06
0.02625861
3.3567449e-06
0.026255254
3.3564665e-06
0.026251898
3.3561921e-06
0.026248542
3.3559096e-06
0.026245186
3.3556312e-06
0.026241831
3.3553569e-06
0.026238476
3.3550744e-06
0.026235121
3.3547961e-06
0.026231766
3.3545219e-06
0.026228412
3.3542396e-06
0.026225058
3.3539614e-06
0.026221705
3.3536875e-06
0.026218351
3.3534054e-06
0.026214998
3.3531275e-06
0.026211645
3.3528537e-06
0.026208293
3.3525718e-06
0.02620494
3.352294e-06
0.026201588
3.3520202e-06
0.026198237
3.3517383e-06
0.026194885
3.3514604e-06
0.026191534
3.3511866e-06
0.026188183
3.3509046e-06
0.026184832
3.3506267e-06
0.026181482
3.3503528e-06
0.026178132
3.3500707e-06
0.026174782
3.3497927e-06
0.026171433
3.3495186e-06
0.026168083
3.3492361e-06
0.026164734
3.3489576e-06
0.026161386
3.3486831e-06
0.026158037
3.3484003e-06
0.026154689
3.3481214e-06
0.026151341
3.3478466e-06
0.026147994
3.3475635e-06
0.026144647
3.3472846e-06
0.0261413
3.3470099e-06
0.026137953
3.346727e-06
0.026134606
3.3464484e-06
0.02613126
3.346174e-06
0.026127914
3.3458916e-06
0.026124569
3.3456135e-06
0.026121223
3.3453398e-06
0.026117878
3.3450582e-06
0.026114533
3.3447808e-06
0.026111189
3.3445078e-06
0.026107845
3.3442266e-06
0.026104501
3.3439496e-06
0.026101157
3.3436768e-06
0.026097814
3.3433957e-06
0.026094471
3.3431187e-06
0.026091128
3.3428457e-06
0.026087785
3.3425644e-06
0.026084443
3.3422871e-06
0.026081101
3.3420138e-06
0.026077759
3.3417322e-06
0.026074418
3.3414547e-06
0.026071077
3.3411811e-06
0.026067736
3.3408993e-06
0.026064395
3.3406215e-06
0.026061055
3.3403477e-06
0.026057715
3.3400657e-06
0.026054375
3.3397878e-06
0.026051035
3.339514e-06
0.026047696
3.3392319e-06
0.026044357
3.3389539e-06
0.026041018
3.33868e-06
0.02603768
3.3383979e-06
0.026034342
3.3381199e-06
0.026031004
3.3378458e-06
0.026027667
3.3375635e-06
0.026024329
3.3372853e-06
0.026020992
3.3370112e-06
0.026017655
3.336729e-06
0.026014319
3.3364509e-06
0.026010983
3.336177e-06
0.026007647
3.335895e-06
0.026004311
3.3356172e-06
0.026000976
3.3353436e-06
0.025997641
3.3350619e-06
0.025994306
3.3347845e-06
0.025990972
3.3345112e-06
0.025987637
3.3342299e-06
0.025984303
3.3339526e-06
0.02598097
3.3336794e-06
0.025977636
3.333398e-06
0.025974303
3.3331205e-06
0.02597097
3.3328471e-06
0.025967638
3.3325654e-06
0.025964306
3.3322878e-06
0.025960974
3.3320144e-06
0.025957642
3.3317328e-06
0.02595431
3.3314555e-06
0.025950979
3.3311825e-06
0.025947648
3.3309015e-06
0.025944318
3.3306248e-06
0.025940987
3.3303524e-06
0.025937657
3.330072e-06
0.025934327
3.3297956e-06
0.025930998
3.3295233e-06
0.025927669
3.3292426e-06
0.02592434
3.3289658e-06
0.025921011
3.3286929e-06
0.025917683
3.3284116e-06
0.025914354
3.3281341e-06
0.025911027
3.3278606e-06
0.025907699
3.3275788e-06
0.025904372
3.327301e-06
0.025901045
3.3270272e-06
0.025897718
3.3267454e-06
0.025894391
3.3264678e-06
0.025891065
3.3261944e-06
0.025887739
3.3259129e-06
0.025884414
3.3256356e-06
0.025881088
3.3253624e-06
0.025877763
3.3250809e-06
0.025874438
3.3248033e-06
0.025871114
3.3245295e-06
0.02586779
3.3242474e-06
0.025864466
3.3239691e-06
0.025861142
3.3236948e-06
0.025857819
3.3234124e-06
0.025854495
3.3231343e-06
0.025851173
3.3228605e-06
0.02584785
3.322579e-06
0.025844528
3.322302e-06
0.025841206
3.3220295e-06
0.025837884
3.3217491e-06
0.025834563
3.321473e-06
0.025831241
3.321201e-06
0.02582792
3.3209208e-06
0.0258246
3.3206444e-06
0.025821279
3.3203718e-06
0.025817959
3.3200909e-06
0.025814639
3.3198139e-06
0.02581132
3.3195408e-06
0.025808001
3.3192593e-06
0.025804682
3.3189819e-06
0.025801363
3.3187085e-06
0.025798045
3.318427e-06
0.025794726
3.3181497e-06
0.025791409
3.3178765e-06
0.025788091
3.3175954e-06
0.025784774
3.3173184e-06
0.025781457
3.3170457e-06
0.02577814
3.3167648e-06
0.025774823
3.3164881e-06
0.025771507
3.3162155e-06
0.025768191
3.3159348e-06
0.025764875
3.3156582e-06
0.02576156
3.3153857e-06
0.025758245
3.3151052e-06
0.02575493
3.3148289e-06
0.025751616
3.3145568e-06
0.025748301
3.3142766e-06
0.025744987
3.3140007e-06
0.025741674
3.3137288e-06
0.02573836
3.3134489e-06
0.025735047
3.3131729e-06
0.025731734
3.3129009e-06
0.025728421
3.3126206e-06
0.025725109
3.3123441e-06
0.025721797
3.3120716e-06
0.025718485
3.3117907e-06
0.025715174
3.3115138e-06
0.025711863
3.3112408e-06
0.025708552
3.3109596e-06
0.025705241
3.3106824e-06
0.02570193
3.3104093e-06
0.02569862
3.3101281e-06
0.02569531
3.3098511e-06
0.025692001
3.3095782e-06
0.025688692
3.3092973e-06
0.025685383
3.3090206e-06
0.025682074
3.308748e-06
0.025678765
3.3084673e-06
0.025675457
3.3081907e-06
0.025672149
3.3079181e-06
0.025668842
3.3076374e-06
0.025665534
3.3073608e-06
0.025662227
3.3070884e-06
0.02565892
3.3068079e-06
0.025655614
3.3065316e-06
0.025652308
3.3062595e-06
0.025649002
3.3059794e-06
0.025645696
3.3057036e-06
0.02564239
3.3054318e-06
0.025639085
3.305152e-06
0.02563578
3.3048762e-06
0.025632476
3.3046043e-06
0.025629171
3.3043243e-06
0.025625867
3.3040481e-06
0.025622564
3.3037758e-06
0.02561926
3.3034953e-06
0.025615957
3.3032187e-06
0.025612654
3.3029461e-06
0.025609351
3.3026653e-06
0.025606049
3.3023885e-06
0.025602747
3.3021158e-06
0.025599445
3.301835e-06
0.025596143
3.3015583e-06
0.025592842
3.3012858e-06
0.025589541
3.3010052e-06
0.02558624
3.3007289e-06
0.02558294
3.3004567e-06
0.02557964
3.3001765e-06
0.02557634
3.2999005e-06
0.02557304
3.2996287e-06
0.025569741
3.2993489e-06
0.025566442
3.2990733e-06
0.025563143
3.2988019e-06
0.025559845
3.2985225e-06
0.025556546
3.2982472e-06
0.025553248
3.297976e-06
0.025549951
3.2976968e-06
0.025546653
3.2974215e-06
0.025543356
3.2971501e-06
0.025540059
3.2968706e-06
0.025536763
3.2965949e-06
0.025533466
3.2963232e-06
0.02553017
3.2960432e-06
0.025526874
3.2957671e-06
0.025523579
3.295495e-06
0.025520284
3.2952146e-06
0.025516989
3.2949382e-06
0.025513694
3.2946658e-06
0.0255104
3.2943853e-06
0.025507106
3.2941088e-06
0.025503812
3.2938363e-06
0.025500518
3.2935558e-06
0.025497225
3.2932793e-06
0.025493932
3.293007e-06
0.025490639
3.2927267e-06
0.025487347
3.2924505e-06
0.025484055
3.2921784e-06
0.025480763
3.2918983e-06
0.025477471
3.2916222e-06
0.02547418
3.2913503e-06
0.025470889
3.2910704e-06
0.025467598
3.2907947e-06
0.025464307
3.2905231e-06
0.025461017
3.2902436e-06
0.025457727
3.2899683e-06
0.025454437
3.289697e-06
0.025451148
3.2894177e-06
0.025447859
3.2891425e-06
0.02544457
3.2888712e-06
0.025441281
3.2885918e-06
0.025437993
3.2883164e-06
0.025434705
3.2880449e-06
0.025431417
3.2877652e-06
0.02542813
3.2874894e-06
0.025424843
3.2872175e-06
0.025421556
3.2869376e-06
0.025418269
3.2866616e-06
0.025414983
3.2863896e-06
0.025411696
3.2861095e-06
0.025408411
3.2858334e-06
0.025405125
3.2855614e-06
0.02540184
3.2852814e-06
0.025398555
3.2850054e-06
0.02539527
3.2847335e-06
0.025391986
3.2844536e-06
0.025388701
3.2841778e-06
0.025385418
3.2839062e-06
0.025382134
3.2836267e-06
0.025378851
3.2833513e-06
0.025375567
3.2830801e-06
0.025372285
3.2828011e-06
0.025369002
3.2825263e-06
0.02536572
3.2822557e-06
0.025362438
3.2819772e-06
0.025359156
3.2817027e-06
0.025355875
3.2814323e-06
0.025352594
3.2811537e-06
0.025349313
3.2808791e-06
0.025346032
3.2806083e-06
0.025342752
3.2803292e-06
0.025339472
3.2800541e-06
0.025336192
3.2797828e-06
0.025332912
3.2795033e-06
0.025329633
3.2792278e-06
0.025326354
3.2789562e-06
0.025323076
3.2786765e-06
0.025319797
3.2784009e-06
0.025316519
3.2781292e-06
0.025313241
3.2778494e-06
0.025309964
3.2775737e-06
0.025306686
3.277302e-06
0.025303409
3.2770222e-06
0.025300133
3.2767464e-06
0.025296856
3.2764747e-06
0.02529358
3.276195e-06
0.025290304
3.2759193e-06
0.025287028
3.2756478e-06
0.025283753
3.2753683e-06
0.025280478
3.2750929e-06
0.025277203
3.2748217e-06
0.025273929
3.2745427e-06
0.025270654
3.2742678e-06
0.02526738
3.2739972e-06
0.025264107
3.2737188e-06
0.025260833
3.2734444e-06
0.02525756
3.273174e-06
0.025254287
3.2728956e-06
0.025251014
3.2726209e-06
0.025247742
3.2723502e-06
0.02524447
3.2720712e-06
0.025241198
3.2717961e-06
0.025237927
3.2715249e-06
0.025234655
3.2712455e-06
0.025231384
3.2709701e-06
0.025228114
3.2706987e-06
0.025224843
3.2704193e-06
0.025221573
3.2701439e-06
0.025218303
3.2698726e-06
0.025215034
3.2695933e-06
0.025211764
3.269318e-06
0.025208495
3.2690467e-06
0.025205227
3.2687674e-06
0.025201958
3.2684921e-06
0.02519869
3.2682209e-06
0.025195422
3.2679416e-06
0.025192154
3.2676664e-06
0.025188887
3.2673954e-06
0.02518562
3.2671165e-06
0.025182353
3.2668418e-06
0.025179086
3.2665714e-06
0.02517582
3.2662933e-06
0.025172554
3.2660195e-06
0.025169288
3.2657499e-06
0.025166023
3.2654725e-06
0.025162758
3.2651991e-06
0.025159493
3.2649296e-06
0.025156228
3.2646519e-06
0.025152964
3.2643779e-06
0.0251497
3.2641075e-06
0.025146436
3.2638289e-06
0.025143172
3.263554e-06
0.025139909
3.263283e-06
0.025136646
3.2630039e-06
0.025133383
3.2627288e-06
0.025130121
3.2624577e-06
0.025126858
3.2621786e-06
0.025123597
3.2619035e-06
0.025120335
3.2616326e-06
0.025117074
3.2613536e-06
0.025113813
3.2610786e-06
0.025110552
3.2608075e-06
0.025107291
3.2605285e-06
0.025104031
3.2602533e-06
0.025100771
3.2599821e-06
0.025097511
3.2597029e-06
0.025094252
3.2594277e-06
0.025090993
3.2591566e-06
0.025087734
3.2588776e-06
0.025084475
3.2586029e-06
0.025081217
3.2583325e-06
0.025077959
3.2580545e-06
0.025074701
3.2577808e-06
0.025071444
3.2575114e-06
0.025068186
3.2572342e-06
0.025064929
3.2569611e-06
0.025061673
3.2566918e-06
0.025058416
3.2564142e-06
0.02505516
3.2561403e-06
0.025051904
3.2558699e-06
0.025048649
3.2555912e-06
0.025045393
3.2553162e-06
0.025042138
3.2550451e-06
0.025038883
3.2547659e-06
0.025035629
3.2544907e-06
0.025032375
3.2542197e-06
0.025029121
3.2539408e-06
0.025025867
3.253666e-06
0.025022614
3.2533953e-06
0.025019361
3.2531168e-06
0.025016108
3.2528423e-06
0.025012855
3.2525719e-06
0.025009603
3.2522934e-06
0.025006351
3.2520189e-06
0.025003099
3.2517484e-06
0.024999848
3.2514699e-06
0.024996597
3.2511954e-06
0.024993346
3.2509251e-06
0.024990095
3.250647e-06
0.024986845
3.2503732e-06
0.024983594
3.2501038e-06
0.024980345
3.249827e-06
0.024977095
3.2495546e-06
0.024973846
3.2492866e-06
0.024970597
3.2490108e-06
0.024967348
3.2487392e-06
0.0249641
3.2484713e-06
0.024960851
3.2481953e-06
0.024957603
3.247923e-06
0.024954356
3.2476544e-06
0.024951108
3.2473776e-06
0.024947861
3.2471049e-06
0.024944614
3.2468362e-06
0.024941368
3.2465599e-06
0.024938122
3.2462879e-06
0.024934876
3.2460204e-06
0.02493163
3.2457456e-06
0.024928384
3.2454754e-06
0.024925139
3.2452098e-06
0.024921894
3.2449371e-06
0.02491865
3.2446692e-06
0.024915405
3.2444062e-06
0.024912161
3.2441365e-06
0.024908917
3.2438722e-06
0.024905674
3.2436135e-06
0.02490243
3.2433489e-06
0.024899187
3.2430909e-06
0.024895944
3.2428399e-06
0.024892702
3.2425849e-06
0.024889459
3.2423386e-06
0.024886217
3.2421021e-06
0.024882975
3.2418646e-06
0.024879734
3.2416397e-06
0.024876492
3.2414288e-06
0.024873251
3.2412223e-06
0.02487001
3.2410345e-06
0.024866769
3.2408684e-06
0.024863528
3.2407161e-06
0.024860288
3.2405941e-06
0.024857047
3.2405085e-06
0.024853807
3.2404545e-06
0.024850566
3.2404526e-06
0.024847326
3.2405135e-06
0.024844085
3.240638e-06
0.024840844
3.2408533e-06
0.024837603
3.2411778e-06
0.024834362
3.2416219e-06
0.024831119
3.242224e-06
0.024827876
3.2430157e-06
0.024824632
3.2440227e-06
0.024821387
3.2453018e-06
0.02481814
3.2469052e-06
0.024814891
3.2488827e-06
0.02481164
3.2513174e-06
0.024808386
3.2542914e-06
0.024805128
3.2578864e-06
0.024801866
3.2622189e-06
0.024798598
3.2674046e-06
0.024795325
3.2735555e-06
0.024792044
3.2808122e-06
0.024788755
3.289301e-06
0.024785455
3.2991226e-06
0.024782145
3.3103707e-06
0.024778822
3.3230702e-06
0.024775485
3.3371406e-06
0.024772132
3.3523815e-06
0.024768764
3.3683851e-06
0.02476538
3.3844747e-06
0.02476198
3.3992946e-06
0.02475857
3.410666e-06
0.024755145
3.4245656e-06
0.024751696
3.4486665e-06
3.2338378e-06
0.010261804
-0.00065694865
0.011094778
-0.0016598574
0.012271961
-0.0023518035
0.01364998
-0.0027601024
0.015113239
-0.0029356916
0.016575049
-0.0029368736
0.01797594
-0.0028176331
0.019278907
-0.0026229093
0.020464089
-0.0023872763
0.021523901
-0.0021356535
0.022459044
-0.0018849433
0.023275455
-0.0016458655
0.023982076
-0.0014246234
0.024589321
-0.0012242659
0.025108037
-0.0010457314
0.025548852
-0.00088861154
0.025921782
-0.0007516902
0.026236018
-0.00063331371
0.026499836
-0.00053163656
0.026720579
-0.00044477975
0.026904693
-0.00037092873
0.027057783
-0.0003083893
0.02718469
-0.00025561636
0.027289569
-0.00021122509
0.027375969
-0.00017399006
0.027446907
-0.00014283791
0.027504936
-0.00011683652
0.027552214
-9.5181566e-05
0.027590555
-7.7182994e-05
0.02762148
-6.2251962e-05
0.027646265
-4.9887852e-05
0.027665973
-3.9666615e-05
0.02768149
-3.1230592e-05
0.027693553
-2.4278735e-05
0.027702773
-1.855831e-05
0.027709658
-1.3858005e-05
0.027714626
-1.000126e-05
0.027718024
-6.8408329e-06
0.027720136
-4.2545097e-06
0.027721197
-2.1407491e-06
0.0277214
-4.1529866e-07
0.027720904
9.9130229e-07
0.027719839
2.1365165e-06
0.02771831
3.0678481e-06
0.027716405
3.8241825e-06
0.027714196
4.4375925e-06
0.027711739
4.9345359e-06
0.027709082
5.3364825e-06
0.027706263
5.6611167e-06
0.027703315
5.9230278e-06
0.027700261
6.1339093e-06
0.027697123
6.3034044e-06
0.027693918
6.4394962e-06
0.027690658
6.5484591e-06
0.027687354
6.6354957e-06
0.027684017
6.7049554e-06
0.027680651
6.760143e-06
0.027677264
6.8038372e-06
0.02767386
6.8384123e-06
0.027670442
6.8655649e-06
0.027667014
6.8867666e-06
0.027663578
6.9033292e-06
0.027660135
6.9160872e-06
0.027656687
6.9258121e-06
0.027653235
6.9332476e-06
0.027649781
6.9387668e-06
0.027646325
6.9427671e-06
0.027642867
6.9456893e-06
0.027639409
6.9476622e-06
0.027635949
6.9488867e-06
0.02763249
6.9496461e-06
0.02762903
6.9499429e-06
0.02762557
6.949877e-06
0.02762211
6.9496509e-06
0.027618651
6.9492024e-06
0.027615192
6.9485799e-06
0.027611733
6.9479447e-06
0.027608274
6.9472024e-06
0.027604816
6.9463759e-06
0.027601359
6.9456067e-06
0.027597901
6.9447847e-06
0.027594444
6.9439202e-06
0.027590988
6.9431444e-06
0.027587532
6.9423388e-06
0.027584076
6.9415069e-06
0.027580621
6.9407741e-06
0.027577166
6.9400176e-06
0.027573712
6.9392378e-06
0.027570257
6.9385577e-06
0.027566804
6.9378531e-06
0.02756335
6.9371229e-06
0.027559897
6.9364891e-06
0.027556444
6.935827e-06
0.027552992
6.9351352e-06
0.027549539
6.934536e-06
0.027546088
6.9339051e-06
0.027542636
6.9332416e-06
0.027539185
6.9326682e-06
0.027535734
6.9320608e-06
0.027532283
6.9314188e-06
0.027528833
6.9308652e-06
0.027525383
6.9302758e-06
0.027521933
6.9296499e-06
0.027518484
6.9291104e-06
0.027515034
6.9285331e-06
0.027511586
6.9279175e-06
0.027508137
6.9273865e-06
0.027504689
6.9268163e-06
0.02750124
6.9262065e-06
0.027497793
6.9256799e-06
0.027494345
6.9251127e-06
0.027490898
6.9245044e-06
0.027487451
6.9239781e-06
0.027484004
6.9234103e-06
0.027480558
6.922801e-06
0.027477112
6.9222739e-06
0.027473666
6.9217059e-06
0.027470221
6.9210972e-06
0.027466775
6.9205712e-06
0.02746333
6.9200048e-06
0.027459886
6.9193978e-06
0.027456441
6.9188737e-06
0.027452997
6.9183091e-06
0.027449554
6.9177039e-06
0.02744611
6.9171815e-06
0.027442667
6.9166187e-06
0.027439224
6.9160155e-06
0.027435781
6.9154953e-06
0.027432339
6.9149348e-06
0.027428897
6.9143341e-06
0.027425455
6.913816e-06
0.027422013
6.913257e-06
0.027418572
6.9126569e-06
0.027415131
6.9121386e-06
0.02741169
6.9115788e-06