/*--------------------------------*- C++ -*----------------------------------*\
  =========                 |
  \\      /  F ield         | OpenFOAM: The Open Source CFD Toolbox
   \\    /   O peration     | Website:  https://openfoam.org
    \\  /    A nd           | Version:  6
     \\/     M anipulation  |
\*---------------------------------------------------------------------------*/
FoamFile
{
    version     2.0;
    format      ascii;
    class       volVectorField;
    location    "10";
    object      U;
}
// * * * * * * * * * * * * * * * * * * * * * * * * * * * * * * * * * * * * * //

dimensions      [0 1 -1 0 0 0 0];

internalField   nonuniform List<vector> 
15000
(
(1.5039699 0 -0.016502818)
(1.5954097 0 -0.041441729)
(1.7499441 0 -0.058853392)
(1.9470271 0 -0.069271852)
(2.1650777 0 -0.073837215)
(2.3890597 1.5781029e-20 -0.07400365)
(2.6079597 0 -0.071106917)
(2.8144955 0 -0.066271619)
(3.0043885 1.575268e-20 -0.060372625)
(3.1755937 0 -0.054045737)
(3.3276268 1.5726453e-20 -0.047725102)
(3.4610288 0 -0.041687747)
(3.5769634 0 -0.036095068)
(3.6769305 1.5681713e-20 -0.031027283)
(3.7625696 0 -0.026510084)
(3.8355318 0 -0.022534265)
(3.8974008 0 -0.019069639)
(3.949647 1.5617862e-20 -0.016074607)
(3.9936055 0 -0.013502525)
(4.0304684 0 -0.011305804)
(4.0612868 1.556903e-20 -0.0094384396)
(4.086978 0 -0.0078574683)
(4.1083366 1.5536394e-20 -0.0065237095)
(4.1260461 0 -0.005402048)
(4.1406913 0 -0.0044614223)
(4.1527702 0 -0.0036746374)
(4.162705 0 -0.0030180794)
(4.1708526 0 -0.002471383)
(4.1775136 0 -0.0020170848)
(4.1829403 1.5422405e-20 -0.0016402824)
(4.1873442 0 -0.0013283133)
(4.1909021 1.5389931e-20 -0.0010704579)
(4.1937611 0 -0.00085767211)
(4.1960439 0 -0.00068234794)
(4.1978523 1.5341279e-20 -0.00053810316)
(4.1992706 0 -0.00041959715)
(4.2003686 0 -0.00032237124)
(4.201204 0 -0.00024271106)
(4.2018244 1.5276487e-20 -0.00017752846)
(4.202269 0 -0.00012426081)
(4.20257 0 -8.0785287e-05)
(4.2027538 0 -4.5346388e-05)
(4.2028422 0 -1.6494658e-05)
(4.202853 0 6.9648274e-06)
(4.2028006 0 2.6015742e-05)
(4.2026971 0 4.1466711e-05)
(4.202552 0 5.3981573e-05)
(4.2023733 0 6.4104603e-05)
(4.2021674 0 7.2281484e-05)
(4.2019396 0 7.887671e-05)
(4.2016941 1.5082364e-20 8.4188039e-05)
(4.2014344 -1.5066196e-20 8.8458406e-05)
(4.2011633 1.5050029e-20 9.1885792e-05)
(4.2008829 0 9.4631363e-05)
(4.2005953 -1.5017696e-20 9.682616e-05)
(4.2003017 1.5001531e-20 9.8576609e-05)
(4.2000035 0 9.9969062e-05)
(4.1997016 0 0.0001010735)
(4.1993967 0 0.00010194656)
(4.1990895 0 0.00010263406)
(4.1987804 0 0.00010317301)
(4.1984699 0 0.00010359325)
(4.1981583 1.4888394e-20 0.00010391885)
(4.1978458 -1.4872234e-20 0.00010416919)
(4.1975327 0 0.00010435982)
(4.197219 0 0.00010450324)
(4.196905 -1.4823757e-20 0.00010460948)
(4.1965907 1.48076e-20 0.00010468651)
(4.1962761 0 0.00010474071)
(4.1959614 0 0.00010477716)
(4.1956466 0 0.00010479986)
(4.1953318 0 0.00010481203)
(4.1950169 0 0.00010481617)
(4.194702 0 0.00010481427)
(4.1943871 0 0.00010480789)
(4.1940722 0 0.00010479824)
(4.1937573 0 0.00010478627)
(4.1934424 0 0.00010477272)
(4.1931276 0 0.00010475815)
(4.1928127 0 0.00010474298)
(4.192498 0 0.00010472754)
(4.1921832 0 0.00010471209)
(4.1918685 0 0.00010469679)
(4.1915538 0 0.00010468179)
(4.1912391 -1.4533007e-20 0.00010466716)
(4.1909245 0 0.00010465294)
(4.1906099 0 0.00010463916)
(4.1902953 0 0.00010462582)
(4.1899807 0 0.0001046129)
(4.1896662 0 0.00010460041)
(4.1893517 0 0.00010458831)
(4.1890372 0 0.00010457657)
(4.1887227 -1.4403844e-20 0.00010456516)
(4.1884083 -1.4387701e-20 0.00010455405)
(4.1880938 0 0.0001045432)
(4.1877794 0 0.00010453259)
(4.187465 -1.4339276e-20 0.0001045222)
(4.1871506 -1.4323135e-20 0.000104512)
(4.1868362 0 0.00010450196)
(4.1865218 0 0.00010449207)
(4.1862075 0 0.00010448229)
(4.1858932 0 0.00010447263)
(4.1855788 1.4242441e-20 0.00010446307)
(4.1852645 0 0.00010445359)
(4.1849502 0 0.00010444419)
(4.1846359 -1.4194031e-20 0.00010443486)
(4.1843216 0 0.00010442558)
(4.1840074 0 0.00010441636)
(4.1836931 -1.4145626e-20 0.00010440719)
(4.1833789 0 0.00010439805)
(4.1830647 0 0.00010438894)
(4.1827504 0 0.00010437985)
(4.1824362 0 0.00010437079)
(4.182122 0 0.00010436174)
(4.1818079 -1.4048832e-20 0.0001043527)
(4.1814937 0 0.00010434369)
(4.1811795 0 0.00010433469)
(4.1808654 0 0.00010432572)
(4.1805512 0 0.00010431676)
(4.1802371 0 0.00010430784)
(4.179923 0 0.00010429894)
(4.1796089 0 0.00010429006)
(4.1792948 0 0.00010428121)
(4.1789807 0 0.00010427236)
(4.1786666 0 0.00010426353)
(4.1783526 0 0.0001042547)
(4.1780385 -1.3855306e-20 0.00010424588)
(4.1777245 -1.3839182e-20 0.00010423705)
(4.1774105 0 0.00010422823)
(4.1770964 -1.3806937e-20 0.00010421939)
(4.1767824 0 0.00010421054)
(4.1764684 0 0.00010420168)
(4.1761545 1.3758573e-20 0.00010419279)
(4.1758405 0 0.00010418388)
(4.1755265 0 0.00010417496)
(4.1752126 -1.3710214e-20 0.00010416602)
(4.1748986 0 0.00010415708)
(4.1745847 -1.3677978e-20 0.00010414813)
(4.1742708 -1.3661861e-20 0.00010413919)
(4.1739569 0 0.00010413024)
(4.173643 0 0.00010412129)
(4.1733291 -1.3613513e-20 0.00010411235)
(4.1730152 -1.3597398e-20 0.0001041034)
(4.1727014 0 0.00010409445)
(4.1723875 0 0.00010408551)
(4.1720737 0 0.00010407657)
(4.1717598 0 0.00010406763)
(4.171446 0 0.00010405871)
(4.1711322 0 0.00010404979)
(4.1708184 0 0.00010404087)
(4.1705046 -1.3468499e-20 0.00010403196)
(4.1701909 0 0.00010402305)
(4.1698771 0 0.00010401415)
(4.1695633 0 0.00010400526)
(4.1692496 0 0.00010399637)
(4.1689359 0 0.00010398748)
(4.1686221 0 0.00010397859)
(4.1683084 0 0.0001039697)
(4.1679947 0 0.00010396082)
(4.1676811 -1.3323531e-20 0.00010395194)
(4.1673674 -1.3307427e-20 0.00010394305)
(4.1670537 1.3291323e-20 0.00010393416)
(4.1667401 0 0.00010392526)
(4.1664264 0 0.00010391636)
(4.1661128 0 0.00010390745)
(4.1657992 1.3226912e-20 0.00010389855)
(4.1654856 1.3210811e-20 0.00010388965)
(4.165172 -1.3194711e-20 0.00010388076)
(4.1648584 -1.317861e-20 0.00010387188)
(4.1645448 0 0.000103863)
(4.1642312 -1.3146412e-20 0.00010385412)
(4.1639177 -1.3130314e-20 0.00010384525)
(4.1636041 -1.3114216e-20 0.00010383636)
(4.1632906 1.3098119e-20 0.00010382747)
(4.1629771 1.3082022e-20 0.00010381857)
(4.1626636 0 0.00010380965)
(4.1623501 1.3049831e-20 0.00010380074)
(4.1620366 1.3033736e-20 0.00010379184)
(4.1617231 1.3017642e-20 0.00010378295)
(4.1614097 -1.3001548e-20 0.00010377407)
(4.1610962 0 0.00010376521)
(4.1607828 0 0.00010375635)
(4.1604693 0 0.00010374751)
(4.1601559 -1.2937179e-20 0.00010373867)
(4.1598425 -1.2921088e-20 0.00010372982)
(4.1595291 0 0.00010372097)
(4.1592157 -1.2888908e-20 0.00010371211)
(4.1589023 0 0.00010370326)
(4.158589 0 0.0001036944)
(4.1582756 0 0.00010368554)
(4.1579623 0 0.00010367667)
(4.1576489 0 0.0001036678)
(4.1573356 0 0.00010365893)
(4.1570223 0 0.00010365004)
(4.156709 0 0.00010364116)
(4.1563957 0 0.00010363228)
(4.1560824 0 0.00010362339)
(4.1557692 0 0.00010361451)
(4.1554559 -1.2695877e-20 0.00010360563)
(4.1551427 0 0.00010359675)
(4.1548294 -1.2663713e-20 0.00010358786)
(4.1545162 -1.2647632e-20 0.00010357897)
(4.154203 -1.2631552e-20 0.00010357006)
(4.1538898 1.2615472e-20 0.00010356114)
(4.1535766 0 0.0001035522)
(4.1532634 -1.2583314e-20 0.00010354326)
(4.1529502 1.2567236e-20 0.00010353432)
(4.1526371 1.2551158e-20 0.00010352538)
(4.1523239 1.2535082e-20 0.00010351645)
(4.1520108 -1.2519005e-20 0.00010350753)
(4.1516977 0 0.00010349863)
(4.1513846 1.2486854e-20 0.00010348974)
(4.1510715 -1.2470779e-20 0.00010348086)
(4.1507584 -1.2454705e-20 0.00010347197)
(4.1504453 0 0.00010346309)
(4.1501322 0 0.0001034542)
(4.1498192 -1.2406487e-20 0.00010344531)
(4.1495061 -1.2390415e-20 0.00010343642)
(4.1491931 1.2374344e-20 0.00010342754)
(4.1488801 0 0.00010341866)
(4.1485671 0 0.00010340978)
(4.1482541 0 0.0001034009)
(4.1479411 0 0.00010339203)
(4.1476281 1.2293997e-20 0.00010338316)
(4.1473151 0 0.00010337431)
(4.1470022 0 0.00010336546)
(4.1466892 0 0.00010335661)
(4.1463763 0 0.00010334777)
(4.1460634 -1.2213664e-20 0.00010333894)
(4.1457505 0 0.00010333011)
(4.1454376 0 0.00010332127)
(4.1451247 -1.2165471e-20 0.00010331242)
(4.1448118 0 0.00010330356)
(4.1444989 0 0.00010329468)
(4.1441861 1.2117284e-20 0.00010328579)
(4.1438732 -1.2101223e-20 0.00010327689)
(4.1435604 1.2085162e-20 0.00010326798)
(4.1432475 0 0.00010325908)
(4.1429347 0 0.00010325018)
(4.1426219 0 0.00010324129)
(4.1423091 1.2020925e-20 0.00010323242)
(4.1419964 1.2004867e-20 0.00010322356)
(4.1416836 -1.198881e-20 0.00010321471)
(4.1413708 -1.1972753e-20 0.00010320587)
(4.1410581 0 0.00010319702)
(4.1407453 -1.1940642e-20 0.00010318819)
(4.1404326 -1.1924587e-20 0.00010317935)
(4.1401199 -1.1908532e-20 0.00010317052)
(4.1398072 1.1892479e-20 0.00010316168)
(4.1394945 0 0.00010315286)
(4.1391818 0 0.00010314402)
(4.1388692 1.1844321e-20 0.00010313518)
(4.1385565 1.1828269e-20 0.00010312634)
(4.1382438 1.1812219e-20 0.00010311749)
(4.1379312 0 0.00010310864)
(4.1376186 0 0.0001030998)
(4.137306 0 0.00010309096)
(4.1369934 0 0.00010308213)
(4.1366808 -1.1731973e-20 0.00010307331)
(4.1363682 0 0.00010306449)
(4.1360556 0 0.00010305567)
(4.1357431 -1.1683833e-20 0.00010304684)
(4.1354305 0 0.00010303801)
(4.135118 0 0.00010302916)
(4.1348054 1.1635698e-20 0.0001030203)
(4.1344929 0 0.00010301143)
(4.1341804 0 0.00010300256)
(4.1338679 0 0.00010299369)
(4.1335554 0 0.00010298482)
(4.133243 0 0.00010297596)
(4.1329305 0 0.0001029671)
(4.132618 0 0.00010295826)
(4.1323056 0 0.00010294942)
(4.1319932 -1.1491325e-20 0.00010294058)
(4.1316808 0 0.00010293173)
(4.1313683 -1.1459248e-20 0.00010292288)
(4.131056 -1.1443211e-20 0.00010291403)
(4.1307436 0 0.00010290517)
(4.1304312 0 0.00010289632)
(4.1301188 1.1395102e-20 0.00010288746)
(4.1298065 -1.1379067e-20 0.0001028786)
(4.1294941 1.1363033e-20 0.00010286974)
(4.1291818 1.1346999e-20 0.00010286087)
(4.1288695 1.1330965e-20 0.000102852)
(4.1285572 0 0.00010284312)
(4.1282449 1.1298901e-20 0.00010283426)
(4.1279326 1.1282869e-20 0.00010282539)
(4.1276203 -1.1266838e-20 0.00010281654)
(4.1273081 -1.1250808e-20 0.00010280769)
(4.1269958 0 0.00010279885)
(4.1266836 0 0.00010279)
(4.1263713 -1.120272e-20 0.00010278115)
(4.1260591 -1.1186692e-20 0.00010277229)
(4.1257469 1.1170665e-20 0.00010276342)
(4.1254347 0 0.00010275453)
(4.1251225 0 0.00010274564)
(4.1248104 0 0.00010273674)
(4.1244982 0 0.00010272785)
(4.124186 1.1090537e-20 0.00010271897)
(4.1238739 0 0.00010271011)
(4.1235618 0 0.00010270126)
(4.1232497 0 0.00010269242)
(4.1229375 0 0.00010268359)
(4.1226254 -1.1010423e-20 0.00010267477)
(4.1223134 0 0.00010266594)
(4.1220013 0 0.0001026571)
(4.1216892 -1.0962362e-20 0.00010264826)
(4.1213772 0 0.00010263941)
(4.1210651 0 0.00010263056)
(4.1207531 1.0914306e-20 0.00010262171)
(4.1204411 -1.0898289e-20 0.00010261286)
(4.1201291 1.0882272e-20 0.00010260401)
(4.1198171 0 0.00010259517)
(4.1195051 0 0.00010258632)
(4.1191931 0 0.00010257748)
(4.1188811 1.081821e-20 0.00010256863)
(4.1185692 1.0802196e-20 0.00010255979)
(4.1182573 -1.0786183e-20 0.00010255095)
(4.1179453 -1.077017e-20 0.00010254212)
(4.1176334 0 0.00010253328)
(4.1173215 0 0.00010252444)
(4.1170096 1.0722136e-20 0.0001025156)
(4.1166977 0 0.00010250676)
(4.1163858 0 0.00010249792)
(4.116074 0 0.00010248908)
(4.1157621 0 0.00010248023)
(4.1154503 0 0.00010247139)
(4.1151384 -1.0626083e-20 0.00010246255)
(4.1148266 0 0.0001024537)
(4.1145148 0 0.00010244484)
(4.114203 1.0578064e-20 0.00010243598)
(4.1138912 0 0.00010242712)
(4.1135794 0 0.00010241826)
(4.1132677 1.0530051e-20 0.00010240941)
(4.1129559 0 0.00010240056)
(4.1126442 0 0.00010239171)
(4.1123324 0 0.00010238286)
(4.1120207 0 0.00010237402)
(4.111709 0 0.00010236519)
(4.1113973 1.043404e-20 0.00010235638)
(4.1110856 0 0.00010234757)
(4.110774 0 0.00010233877)
(4.1104623 0 0.00010232998)
(4.1101506 0 0.0001023212)
(4.109839 0 0.00010231242)
(4.1095274 1.033805e-20 0.00010230364)
(4.1092157 0 0.00010229486)
(4.1089041 0 0.00010228607)
(4.1085925 0 0.00010227728)
(4.1082809 0 0.00010226847)
(4.1079694 0 0.00010225966)
(4.1076578 1.0242082e-20 0.00010225085)
(4.1073462 0 0.00010224204)
(4.1070347 0 0.00010223323)
(4.1067232 1.0194106e-20 0.00010222444)
(4.1064116 0 0.00010221565)
(4.1061001 0 0.00010220686)
(4.1057886 -1.0146136e-20 0.00010219807)
(4.1054771 0 0.00010218928)
(4.1051656 0 0.00010218047)
(4.1048542 0 0.00010217166)
(4.1045427 0 0.00010216285)
(4.1042313 0 0.00010215402)
(4.1039198 1.005021e-20 0.0001021452)
(4.1036084 0 0.00010213636)
(4.103297 0 0.00010212752)
(4.1029856 1.0002255e-20 0.00010211867)
(4.1026742 0 0.00010210981)
(4.1023628 0 0.00010210096)
(4.1020514 0 0.00010209211)
(4.1017401 0 0.00010208326)
(4.1014287 0 0.00010207442)
(4.1011174 0 0.00010206558)
(4.1008061 0 0.00010205674)
(4.1004948 0 0.00010204791)
(4.1001835 9.8584235e-21 0.00010203908)
(4.0998722 0 0.00010203025)
(4.0995609 0 0.00010202142)
(4.0992496 0 0.00010201258)
(4.0989384 0 0.00010200374)
(4.0986271 0 0.0001019949)
(4.0983159 0 0.00010198606)
(4.0980047 0 0.00010197722)
(4.0976934 0 0.00010196839)
(4.0973822 9.7146398e-21 0.00010195957)
(4.0970711 0 0.00010195075)
(4.0967599 0 0.00010194193)
(4.0964487 0 0.00010193311)
(4.0961375 0 0.00010192428)
(4.0958264 0 0.00010191545)
(4.0955153 0 0.00010190661)
(4.0952041 0 0.00010189776)
(4.094893 0 0.0001018889)
(4.0945819 9.5709043e-21 0.00010188005)
(4.0942708 0 0.00010187119)
(4.0939597 0 0.00010186233)
(4.0936487 9.5230033e-21 0.00010185347)
(4.0933376 0 0.00010184461)
(4.0930266 0 0.00010183576)
(4.0927155 9.4751076e-21 0.00010182692)
(4.0924045 0 0.00010181808)
(4.0920935 0 0.00010180926)
(4.0917825 -9.4272173e-21 0.00010180044)
(4.0914715 0 0.00010179164)
(4.0911605 0 0.00010178285)
(4.0908496 9.3793324e-21 0.00010177407)
(4.0905386 0 0.00010176529)
(4.0902276 0 0.00010175651)
(4.0899167 9.3314528e-21 0.00010174773)
(4.0896058 0 0.00010173894)
(4.0892949 0 0.00010173015)
(4.088984 0 0.00010172137)
(4.0886731 0 0.00010171258)
(4.0883622 0 0.0001017038)
(4.0880513 9.2357099e-21 0.00010169503)
(4.0877405 0 0.00010168625)
(4.0874296 0 0.00010167747)
(4.0871188 0 0.00010166869)
(4.086808 0 0.0001016599)
(4.0864971 0 0.00010165111)
(4.0861863 9.1399885e-21 0.00010164231)
(4.0858755 0 0.00010163351)
(4.0855648 0 0.0001016247)
(4.085254 0 0.00010161589)
(4.0849432 0 0.00010160707)
(4.0846325 0 0.00010159825)
(4.0843217 9.0442888e-21 0.00010158943)
(4.084011 0 0.00010158061)
(4.0837003 0 0.00010157179)
(4.0833896 8.996447e-21 0.00010156297)
(4.0830789 0 0.00010155415)
(4.0827682 0 0.00010154534)
(4.0824575 -8.9486106e-21 0.00010153653)
(4.0821469 0 0.00010152772)
(4.0818362 0 0.00010151892)
(4.0815256 0 0.00010151013)
(4.081215 0 0.00010150133)
(4.0809043 0 0.00010149253)
(4.0805937 8.8529541e-21 0.00010148374)
(4.0802831 0 0.00010147493)
(4.0799726 0 0.00010146613)
(4.079662 8.805134e-21 0.00010145733)
(4.0793514 0 0.00010144853)
(4.0790409 0 0.00010143974)
(4.0787303 0 0.00010143095)
(4.0784198 0 0.00010142216)
(4.0781093 0 0.00010141336)
(4.0777988 0 0.00010140456)
(4.0774883 0 0.00010139575)
(4.0771778 0 0.00010138693)
(4.0768673 8.6617061e-21 0.0001013781)
(4.0765569 0 0.00010136926)
(4.0762464 0 0.00010136042)
(4.075936 0 0.00010135157)
(4.0756256 0 0.00010134272)
(4.0753151 0 0.00010133386)
(4.0750047 0 0.00010132501)
(4.0746943 0 0.00010131616)
(4.074384 0 0.00010130731)
(4.0740736 8.518327e-21 0.00010129848)
(4.0737632 0 0.00010128964)
(4.0734529 0 0.00010128082)
(4.0731425 0 0.00010127202)
(4.0728322 0 0.00010126322)
(4.0725219 0 0.00010125443)
(4.0722116 0 0.00010124566)
(4.0719013 0 0.00010123689)
(4.071591 0 0.00010122813)
(4.0712807 8.3749968e-21 0.00010121936)
(4.0709705 0 0.0001012106)
(4.0706602 0 0.00010120183)
(4.07035 8.3272309e-21 0.00010119306)
(4.0700398 0 0.00010118429)
(4.0697295 0 0.00010117552)
(4.0694193 8.2794705e-21 0.00010116675)
(4.0691091 0 0.00010115798)
(4.068799 0 0.0001011492)
(4.0684888 -8.2317156e-21 0.00010114042)
(4.0681786 0 0.00010113164)
(4.0678685 0 0.00010112284)
(4.0675583 8.1839661e-21 0.00010111405)
(4.0672482 0 0.00010110525)
(4.0669381 0 0.00010109645)
(4.066628 8.136222e-21 0.00010108765)
(4.0663179 0 0.00010107885)
(4.0660078 0 0.00010107004)
(4.0656977 0 0.00010106124)
(4.0653877 0 0.00010105243)
(4.0650776 0 0.00010104363)
(4.0647676 0 0.00010103483)
(4.0644575 0 0.00010102603)
(4.0641475 0 0.00010101724)
(4.0638375 0 0.00010100845)
(4.0635275 0 0.00010099966)
(4.0632175 0 0.00010099087)
(4.0629076 7.9453003e-21 0.00010098209)
(4.0625976 0 0.00010097332)
(4.0622877 0 0.00010096454)
(4.0619777 0 0.00010095576)
(4.0616678 0 0.00010094697)
(4.0613579 0 0.00010093819)
(4.061048 7.8498723e-21 0.00010092941)
(4.0607381 0 0.00010092063)
(4.0604282 0 0.00010091185)
(4.0601183 7.8021665e-21 0.00010090308)
(4.0598084 0 0.0001008943)
(4.0594986 0 0.00010088551)
(4.0591888 -7.7544661e-21 0.00010087673)
(4.0588789 0 0.00010086793)
(4.0585691 0 0.00010085912)
(4.0582593 0 0.00010085031)
(4.0579495 0 0.00010084149)
(4.0576397 0 0.00010083266)
(4.0573299 7.6590819e-21 0.00010082383)
(4.0570202 0 0.000100815)
(4.0567104 0 0.00010080617)
(4.0564007 7.6113979e-21 0.00010079734)
(4.056091 0 0.00010078851)
(4.0557812 0 0.00010077969)
(4.0554715 0 0.00010077087)
(4.0551618 0 0.00010076206)
(4.0548522 0 0.00010075326)
(4.0545425 0 0.00010074448)
(4.0542328 0 0.0001007357)
(4.0539232 0 0.00010072694)
(4.0536135 7.4683791e-21 0.00010071819)
(4.0533039 0 0.00010070944)
(4.0529943 0 0.0001007007)
(4.0526847 0 0.00010069196)
(4.0523751 0 0.00010068321)
(4.0520655 0 0.00010067446)
(4.0517559 0 0.00010066571)
(4.0514464 0 0.00010065696)
(4.0511368 0 0.0001006482)
(4.0508273 7.3254097e-21 0.00010063945)
(4.0505177 0 0.00010063068)
(4.0502082 0 0.00010062192)
(4.0498987 0 0.00010061315)
(4.0495892 0 0.00010060438)
(4.0492797 0 0.0001005956)
(4.0489703 0 0.00010058682)
(4.0486608 0 0.00010057804)
(4.0483513 0 0.00010056926)
(4.0480419 7.1824899e-21 0.00010056049)
(4.0477325 0 0.00010055171)
(4.0474231 0 0.00010054293)
(4.0471137 7.1348609e-21 0.00010053416)
(4.0468043 0 0.00010052538)
(4.0464949 0 0.00010051661)
(4.0461855 7.0872375e-21 0.00010050784)
(4.0458761 0 0.00010049906)
(4.0455668 0 0.00010049029)
(4.0452574 -7.0396195e-21 0.00010048152)
(4.0449481 0 0.00010047275)
(4.0446388 0 0.00010046399)
(4.0443295 6.9920071e-21 0.00010045523)
(4.0440202 0 0.00010044647)
(4.0437109 0 0.00010043771)
(4.0434016 6.9444003e-21 0.00010042895)
(4.0430924 0 0.00010042019)
(4.0427831 0 0.00010041143)
(4.0424739 0 0.00010040267)
(4.0421646 0 0.00010039391)
(4.0418554 0 0.00010038515)
(4.0415462 0 0.00010037639)
(4.041237 0 0.00010036762)
(4.0409278 0 0.00010035885)
(4.0406187 0 0.00010035008)
(4.0403095 0 0.00010034129)
(4.0400003 0 0.0001003325)
(4.0396912 6.754028e-21 0.00010032371)
(4.0393821 0 0.0001003149)
(4.039073 0 0.0001003061)
(4.0387638 0 0.00010029729)
(4.0384547 0 0.00010028847)
(4.0381457 0 0.00010027966)
(4.0378366 6.658875e-21 0.00010027086)
(4.0375275 0 0.00010026205)
(4.0372185 0 0.00010025326)
(4.0369094 6.6113068e-21 0.00010024446)
(4.0366004 0 0.00010023568)
(4.0362914 0 0.0001002269)
(4.0359824 -6.5637442e-21 0.00010021814)
(4.0356734 0 0.00010020939)
(4.0353644 0 0.00010020065)
(4.0350554 0 0.00010019192)
(4.0347465 0 0.0001001832)
(4.0344375 0 0.00010017448)
(4.0341286 6.4686356e-21 0.00010016577)
(4.0338196 0 0.00010015705)
(4.0335107 0 0.00010014833)
(4.0332018 6.4210896e-21 0.0001001396)
(4.0328929 0 0.00010013087)
(4.032584 0 0.00010012213)
(4.0322752 0 0.00010011339)
(4.0319663 0 0.00010010465)
(4.0316574 0 0.00010009589)
(4.0313486 0 0.00010008714)
(4.0310398 0 0.00010007837)
(4.030731 0 0.00010006961)
(4.0304221 6.2784849e-21 0.00010006085)
(4.0301133 0 0.00010005208)
(4.0298046 0 0.00010004331)
(4.0294958 6.2309611e-21 0.00010003454)
(4.029187 0 0.00010002577)
(4.0288783 0 0.00010001701)
(4.0285695 0 0.00010000824)
(4.0282608 0 9.9999467e-05)
(4.0279521 0 9.9990691e-05)
(4.0276434 6.1359303e-21 9.998191e-05)
(4.0273347 0 9.9973122e-05)
(4.027026 0 9.9964331e-05)
(4.0267173 0 9.9955542e-05)
(4.0264087 0 9.9946753e-05)
(4.0261 0 9.9937969e-05)
(4.0257914 0 9.9929193e-05)
(4.0254827 0 9.9920421e-05)
(4.0251741 0 9.9911659e-05)
(4.0248655 5.9934258e-21 9.9902907e-05)
(4.0245569 0 9.9894159e-05)
(4.0242483 0 9.9885421e-05)
(4.0239398 5.9459355e-21 9.9876689e-05)
(4.0236312 0 9.9867958e-05)
(4.0233226 0 9.9859228e-05)
(4.0230141 5.8984507e-21 9.9850497e-05)
(4.0227056 0 9.9841758e-05)
(4.0223971 0 9.9833011e-05)
(4.0220885 -5.8509715e-21 9.9824255e-05)
(4.0217801 0 9.9815486e-05)
(4.0214716 0 9.9806714e-05)
(4.0211631 5.8034979e-21 9.9797943e-05)
(4.0208546 0 9.9789174e-05)
(4.0205462 0 9.9780417e-05)
(4.0202377 5.7560299e-21 9.9771677e-05)
(4.0199293 0 9.9762949e-05)
(4.0196209 0 9.9754238e-05)
(4.0193125 0 9.9745542e-05)
(4.0190041 0 9.9736849e-05)
(4.0186957 0 9.9728158e-05)
(4.0183873 0 9.9719464e-05)
(4.018079 0 9.9710757e-05)
(4.0177706 5.6294758e-21 9.9702039e-05)
(4.0174623 0 9.9693309e-05)
(4.0171539 5.5978435e-21 9.9684563e-05)
(4.0168456 0 9.9675808e-05)
(4.0165373 0 9.9667044e-05)
(4.016229 5.5503997e-21 9.9658272e-05)
(4.0159207 0 9.9649499e-05)
(4.0156125 -5.5187737e-21 9.964073e-05)
(4.0153042 0 9.9631963e-05)
(4.0149959 0 9.9623207e-05)
(4.0146877 0 9.9614462e-05)
(4.0143795 0 9.9605724e-05)
(4.0140713 5.4397194e-21 9.9596992e-05)
(4.013763 0 9.9588261e-05)
(4.0134549 0 9.9579517e-05)
(4.0131467 5.3922943e-21 9.9570759e-05)
(4.0128385 -5.3764872e-21 9.9561981e-05)
(4.0125303 5.3606807e-21 9.9553178e-05)
(4.0122222 0 9.9544361e-05)
(4.011914 -5.3290696e-21 9.9535536e-05)
(4.0116059 5.3132649e-21 9.9526711e-05)
(4.0112978 0 9.95179e-05)
(4.0109897 0 9.9509112e-05)
(4.0106816 0 9.9500349e-05)
(4.0103735 0 9.9491617e-05)
(4.0100654 0 9.9482914e-05)
(4.0097574 0 9.9474227e-05)
(4.0094493 5.2026501e-21 9.9465551e-05)
(4.0091413 -5.1868504e-21 9.9456878e-05)
(4.0088333 0 9.9448194e-05)
(4.0085252 5.155253e-21 9.94395e-05)
(4.0082172 0 9.9430792e-05)
(4.0079092 5.1236582e-21 9.9422066e-05)
(4.0076013 0 9.9413328e-05)
(4.0072933 0 9.9404581e-05)
(4.0069853 5.0762705e-21 9.9395823e-05)
(4.0066774 0 9.9387062e-05)
(4.0063694 0 9.9378301e-05)
(4.0060615 0 9.9369541e-05)
(4.0057536 0 9.936079e-05)
(4.0054457 -4.9973036e-21 9.9352048e-05)
(4.0051378 0 9.9343313e-05)
(4.0048299 4.9657213e-21 9.9334587e-05)
(4.004522 0 9.9325868e-05)
(4.0042142 0 9.9317148e-05)
(4.0039063 4.9183524e-21 9.9308426e-05)
(4.0035985 0 9.9299701e-05)
(4.0032906 4.8867763e-21 9.9290967e-05)
(4.0029828 0 9.9282231e-05)
(4.002675 -4.8552027e-21 9.9273497e-05)
(4.0023672 4.8394168e-21 9.9264766e-05)
(4.0020594 0 9.9256045e-05)
(4.0017517 -4.807847e-21 9.9247337e-05)
(4.0014439 0 9.9238638e-05)
(4.0011362 0 9.9229952e-05)
(4.0008284 0 9.9221276e-05)
(4.0005207 0 9.9212599e-05)
(4.000213 4.7289333e-21 9.9203921e-05)
(3.9999053 0 9.9195238e-05)
(3.9995976 0 9.9186541e-05)
(3.9992899 4.6815927e-21 9.9177833e-05)
(3.9989822 -4.6658137e-21 9.9169115e-05)
(3.9986745 4.6500354e-21 9.9160382e-05)
(3.9983669 0 9.9151641e-05)
(3.9980593 0 9.9142895e-05)
(3.9977516 4.6027042e-21 9.9134142e-05)
(3.997444 0 9.912539e-05)
(3.9971364 0 9.9116642e-05)
(3.9968288 0 9.9107896e-05)
(3.9965212 0 9.909916e-05)
(3.9962136 -4.5238314e-21 9.9090434e-05)
(3.9959061 0 9.9081713e-05)
(3.9955985 4.4922867e-21 9.9073001e-05)
(3.995291 -4.4765152e-21 9.9064292e-05)
(3.9949835 0 9.9055576e-05)
(3.994676 4.4449743e-21 9.9046855e-05)
(3.9943684 0 9.9038124e-05)
(3.994061 4.4134359e-21 9.9029379e-05)
(3.9937535 0 9.9020628e-05)
(3.993446 0 9.9011876e-05)
(3.9931385 4.3661329e-21 9.9003126e-05)
(3.9928311 0 9.8994389e-05)
(3.9925236 -4.3346008e-21 9.8985667e-05)
(3.9922162 0 9.8976959e-05)
(3.9919088 0 9.8968269e-05)
(3.9916014 0 9.8959592e-05)
(3.991294 0 9.8950919e-05)
(3.9909866 4.2557815e-21 9.8942249e-05)
(3.9906792 0 9.8933577e-05)
(3.9903719 0 9.8924892e-05)
(3.9900645 4.2084975e-21 9.8916198e-05)
(3.9897572 -4.1927374e-21 9.8907494e-05)
(3.9894499 4.176978e-21 9.8898776e-05)
(3.9891425 0 9.8890052e-05)
(3.9888352 -4.145461e-21 9.8881321e-05)
(3.9885279 4.1297035e-21 9.8872584e-05)
(3.9882207 0 9.8863846e-05)
(3.9879134 0 9.8855111e-05)
(3.9876061 0 9.8846376e-05)
(3.9872989 0 9.8837649e-05)
(3.9869916 0 9.8828931e-05)
(3.9866844 0 9.8820219e-05)
(3.9863772 4.0194183e-21 9.8811515e-05)
(3.98607 -4.0036658e-21 9.8802818e-05)
(3.9857628 0 9.879412e-05)
(3.9854556 3.9721627e-21 9.8785424e-05)
(3.9851484 0 9.8776727e-05)
(3.9848413 3.9406622e-21 9.8768024e-05)
(3.9845341 0 9.8759322e-05)
(3.984227 0 9.8750624e-05)
(3.9839199 3.8934161e-21 9.8741929e-05)
(3.9836127 0 9.8733243e-05)
(3.9833056 0 9.8724567e-05)
(3.9829985 0 9.8715896e-05)
(3.9826914 0 9.8707232e-05)
(3.9823844 -3.8146852e-21 9.8698571e-05)
(3.9820773 0 9.8689906e-05)
(3.9817703 3.7831973e-21 9.8681237e-05)
(3.9814632 0 9.8672561e-05)
(3.9811562 0 9.8663873e-05)
(3.9808492 3.7359702e-21 9.8655175e-05)
(3.9805422 0 9.8646469e-05)
(3.9802352 3.7044887e-21 9.8637751e-05)
(3.9799282 0 9.8629028e-05)
(3.9796212 -3.6730097e-21 9.8620303e-05)
(3.9793143 3.6572711e-21 9.8611573e-05)
(3.9790073 0 9.8602845e-05)
(3.9787004 -3.6257959e-21 9.8594122e-05)
(3.9783934 0 9.8585401e-05)
(3.9780865 0 9.8576688e-05)
(3.9777796 0 9.8567986e-05)
(3.9774727 0 9.8559287e-05)
(3.9771658 3.547119e-21 9.8550594e-05)
(3.976859 0 9.8541904e-05)
(3.9765521 0 9.8533207e-05)
(3.9762452 3.4999204e-21 9.8524504e-05)
(3.9759384 -3.4841888e-21 9.8515793e-05)
(3.9756316 3.4684579e-21 9.8507068e-05)
(3.9753248 0 9.8498338e-05)
(3.975018 0 9.8489609e-05)
(3.9747112 3.4212689e-21 9.8480882e-05)
(3.9744044 0 9.8472168e-05)
(3.9740976 0 9.8463469e-05)
(3.9737908 0 9.8454782e-05)
(3.9734841 0 9.844611e-05)
(3.9731774 -3.3426333e-21 9.8437449e-05)
(3.9728706 0 9.842879e-05)
(3.9725639 3.3111835e-21 9.8420132e-05)
(3.9722572 -3.2954596e-21 9.841147e-05)
(3.9719505 0 9.8402798e-05)
(3.9716438 3.2640136e-21 9.8394117e-05)
(3.9713372 0 9.8385429e-05)
(3.9710305 3.2325702e-21 9.8376729e-05)
(3.9707238 0 9.8368024e-05)
(3.9704172 0 9.8359316e-05)
(3.9701106 3.1854099e-21 9.8350603e-05)
(3.969804 0 9.8341891e-05)
(3.9694974 -3.1539728e-21 9.8333183e-05)
(3.9691908 0 9.8324477e-05)
(3.9688842 0 9.8315777e-05)
(3.9685776 0 9.8307086e-05)
(3.968271 0 9.8298398e-05)
(3.9679645 3.0753914e-21 9.8289718e-05)
(3.967658 0 9.8281043e-05)
(3.9673514 0 9.8272366e-05)
(3.9670449 3.0282502e-21 9.826369e-05)
(3.9667384 0 9.8255012e-05)
(3.9664319 2.9968259e-21 9.824633e-05)
(3.9661254 0 9.8237649e-05)
(3.965819 -2.9654042e-21 9.8228973e-05)
(3.9655125 2.9496943e-21 9.82203e-05)
(3.965206 0 9.8211637e-05)
(3.9648996 0 9.8202983e-05)
(3.9645932 0 9.8194332e-05)
(3.9642868 0 9.8185687e-05)
(3.9639804 0 9.8177045e-05)
(3.963674 0 9.8168397e-05)
(3.9633676 2.8397428e-21 9.8159745e-05)
(3.9630612 -2.8240381e-21 9.8151087e-05)
(3.9627548 0 9.8142417e-05)
(3.9624485 2.7926304e-21 9.8133739e-05)
(3.9621422 -2.7769275e-21 9.8125055e-05)
(3.9618358 2.7612253e-21 9.8116361e-05)
(3.9615295 0 9.8107663e-05)
(3.9612232 0 9.8098965e-05)
(3.9609169 2.7141225e-21 9.8090264e-05)
(3.9606106 0 9.8081565e-05)
(3.9603044 0 9.8072872e-05)
(3.9599981 0 9.806418e-05)
(3.9596918 0 9.8055495e-05)
(3.9593856 -2.6356306e-21 9.8046818e-05)
(3.9590794 0 9.8038143e-05)
(3.9587732 2.6042383e-21 9.8029472e-05)
(3.958467 0 9.8020803e-05)
(3.9581608 0 9.8012126e-05)
(3.9578546 2.5571547e-21 9.8003444e-05)
(3.9575484 0 9.7994754e-05)
(3.9572422 2.5257688e-21 9.7986052e-05)
(3.9569361 0 9.7977347e-05)
(3.95663 -2.4943856e-21 9.7968645e-05)
(3.9563238 2.4786949e-21 9.7959945e-05)
(3.9560177 0 9.7951258e-05)
(3.9557116 -2.4473154e-21 9.7942584e-05)
(3.9554055 0 9.793392e-05)
(3.9550994 0 9.7925266e-05)
(3.9547934 0 9.7916621e-05)
(3.9544873 0 9.7907973e-05)
(3.9541812 2.3688781e-21 9.7899326e-05)
(3.9538752 0 9.7890674e-05)
(3.9535692 0 9.7882013e-05)
(3.9532632 2.3218234e-21 9.7873345e-05)
(3.9529572 -2.3061398e-21 9.7864673e-05)
(3.9526512 2.2904568e-21 9.7855991e-05)
(3.9523452 2.2747745e-21 9.7847308e-05)
(3.9520392 0 9.7838625e-05)
(3.9517332 2.2434117e-21 9.7829939e-05)
(3.9514273 0 9.7821256e-05)
(3.9511214 0 9.7812577e-05)
(3.9508154 2.1963725e-21 9.7803899e-05)
(3.9505095 0 9.7795227e-05)
(3.9502036 -2.1650162e-21 9.7786562e-05)
(3.9498977 0 9.7777899e-05)
(3.9495918 2.1336625e-21 9.776924e-05)
(3.949286 0 9.7760587e-05)
(3.9489801 0 9.7751932e-05)
(3.9486743 2.0866368e-21 9.7743279e-05)
(3.9483684 0 9.7734628e-05)
(3.9480626 2.0552895e-21 9.7725975e-05)
(3.9477568 -2.0396169e-21 9.7717327e-05)
(3.947451 0 9.7708686e-05)
(3.9471452 2.0082735e-21 9.7700048e-05)
(3.9468394 0 9.7691419e-05)
(3.9465336 -1.9769327e-21 9.7682796e-05)
(3.9462279 -1.9612632e-21 9.7674172e-05)
(3.9459221 0 9.7665549e-05)
(3.9456164 0 9.7656922e-05)
(3.9453106 0 9.7648286e-05)
(3.9450049 1.8985919e-21 9.7639643e-05)
(3.9446992 1.8829257e-21 9.7630994e-05)
(3.9443935 0 9.7622334e-05)
(3.9440878 1.8515953e-21 9.761367e-05)
(3.9437822 0 9.7605002e-05)
(3.9434765 1.8202674e-21 9.7596328e-05)
(3.9431709 -1.8046044e-21 9.7587654e-05)
(3.9428652 -1.7889421e-21 9.7578982e-05)
(3.9425596 1.7732804e-21 9.7570308e-05)
(3.942254 0 9.7561638e-05)
(3.9419484 0 9.7552973e-05)
(3.9416428 -1.7262992e-21 9.7544307e-05)
(3.9413372 0 9.7535645e-05)
(3.9410316 0 9.7526988e-05)
(3.9407261 0 9.7518329e-05)
(3.9404205 1.6636667e-21 9.7509673e-05)
(3.940115 0 9.7501018e-05)
(3.9398094 0 9.7492358e-05)
(3.9395039 1.6166991e-21 9.7483697e-05)
(3.9391984 -1.6010446e-21 9.7475034e-05)
(3.9388929 1.5853907e-21 9.7466367e-05)
(3.9385875 1.5697374e-21 9.7457702e-05)
(3.938282 0 9.7449044e-05)
(3.9379765 1.5384328e-21 9.744039e-05)
(3.9376711 0 9.7431747e-05)
(3.9373656 0 9.7423113e-05)
(3.9370602 1.4914808e-21 9.7414478e-05)
(3.9367548 0 9.7405845e-05)
(3.9364494 -1.4601827e-21 9.739721e-05)
(3.936144 0 9.7388566e-05)
(3.9358386 1.4288872e-21 9.7379917e-05)
(3.9355332 1.4132404e-21 9.7371263e-05)
(3.9352279 0 9.7362602e-05)
(3.9349225 1.3819488e-21 9.7353939e-05)
(3.9346172 0 9.7345276e-05)
(3.9343119 1.3506598e-21 9.7336611e-05)
(3.9340065 -1.3350162e-21 9.732795e-05)
(3.9337012 -1.3193733e-21 9.7319293e-05)
(3.9333959 1.3037311e-21 9.7310637e-05)
(3.9330907 0 9.7301987e-05)
(3.9327854 -1.2724486e-21 9.7293341e-05)