/*--------------------------------*- C++ -*----------------------------------*\
  =========                 |
  \\      /  F ield         | OpenFOAM: The Open Source CFD Toolbox
   \\    /   O peration     | Website:  https://openfoam.org
    \\  /    A nd           | Version:  6
     \\/     M anipulation  |
\*---------------------------------------------------------------------------*/
FoamFile
{
    version     2.0;
    format      ascii;
    class       volVectorField;
    location    "10000";
    object      grad(p);
}
// * * * * * * * * * * * * * * * * * * * * * * * * * * * * * * * * * * * * * //

dimensions      [0 1 -2 0 0 0 0];

internalField   nonuniform List<vector> 
4840
(
(-180960.8 0 -13520.536)
(-262537.94 0 -473.1613)
(-183638.01 1.8521724e-12 -3037.726)
(-186746.12 0 121.09633)
(-176992.73 0 -407.41668)
(-180201.24 0 154.19274)
(-178778.37 0 -77.113918)
(-180173.52 1.8115624e-12 66.112692)
(-179738.81 0 -33.063873)
(-180266.95 0 33.071404)
(-180076.56 -1.7876269e-12 -11.026313)
(-180286.72 -1.7796001e-12 11.028825)
(-180211.88 0 -11.031339)
(-180307.61 0 0)
(-180287.79 -1.7555485e-12 0)
(-180339.5 0 0)
(-180345 -1.7394833e-12 0)
(-180380.2 0 0)
(-180395.6 0 0)
(-180424.2 0 11.048967)
(-180442.9 0 11.05149)
(-180468.2 0 0)
(-180491.3 0 0)
(-180515.5 0 0)
(-180537.5 0 0)
(-180561.7 0 0)
(-180584.8 1.658876e-12 0)
(-180607.9 0 0)
(-180631 1.6426974e-12 0)
(-180654.1 0 0)
(-180678.3 0 0)
(-180701.4 0 0)
(-180724.5 0 0)
(-180748.7 0 0)
(-180771.8 0 0)
(-180794.9 1.5859207e-12 0)
(-180819.1 0 0)
(-180842.2 0 11.094556)
(-180865.3 0 0)
(-180888.4 0 11.099645)
(-180911.5 0 0)
(-180935.7 1.537067e-12 0)
(-180959.9 0 0)
(-180983 0 0)
(-181006.1 1.5125746e-12 0)
(-181030.3 0 0)
(-181053.4 0 0)
(-181076.5 0 0)
(-181100.7 1.4798502e-12 0)
(-181123.8 0 0)
(-181148 0 0)
(-181172.2 -1.4552556e-12 0)
(-181194.2 0 0)
(-181218.4 0 0)
(-181242.6 1.4306171e-12 0)
(-181265.7 0 0)
(-181289.9 0 0)
(-181313 1.4059345e-12 0)
(-181336.1 0 0)
(-181360.3 0 0)
(-181384.5 0 0)
(-181408.7 1.3729557e-12 0)
(-181431.8 0 0)
(-181454.9 0 0)
(-181479.1 0 0)
(-181503.3 0 0)
(-181527.5 0 0)
(-181550.6 0 0)
(-181573.7 0 0)
(-181599 0 0)
(-181622.1 0 11.17912)
(-181645.2 -1.2901631e-12 0)
(-181670.5 0 0)
(-181693.6 -1.273545e-12 0)
(-181716.7 0 0)
(-181742 -1.2569072e-12 0)
(-181766.2 0 0)
(-181789.3 0 0)
(-181812.4 -1.231913e-12 11.199815)
(-181836.6 0 0)
(-181860.8 -1.2152252e-12 0)
(-181885 0 0)
(-181909.2 -1.1985174e-12 0)
(-181932.3 0 0)
(-181957.6 0 0)
(-181981.8 0 11.217986)
(-182004.9 -1.1650417e-12 0)
(-182029.1 0 0)
(-182052.2 0 11.225792)
(-182076.4 -1.1398822e-12 0)
(-182101.7 0 0)
(-182124.8 0 0)
(-182149 0 0)
(-182174.3 0 0)
(-182197.4 0 0)
(-182221.6 0 0)
(-182245.8 -1.081e-12 -5.7608475e-08)
(-182270 -1.072568e-12 0)
(-182294.2 0 11.251889)
(-182317.74 0 0)
(-182342.38 0 1.1257123)
(-182366.69 0 1.1259742)
(-182390.89 0 2.2524724)
(-182414.98 0 1.1264983)
(-182439.29 -1.013402e-12 1.1267605)
(-182463.6 0 1.127023)
(-182487.8 -9.9645156e-13 2.2545709)
(-182512 0 2.2550961)
(-182536.31 -9.7948069e-13 1.1278108)
(-182560.62 0 1.1280737)
(-182584.93 0 1.1283366)
(-182609.24 0 1.1285997)
(-182633.55 0 1.1288629)
(-182657.97 -9.3696392e-13 1.1291263)
(-182682.28 0 2.2587796)
(-182706.59 -9.1992127e-13 1.1296534)
(-182731.01 0 1.1299171)
(-182755.43 0 1.1301809)
(-182779.85 0 1.1304449)
(-182804.16 0 1.130709)
(-182828.58 0 1.1309732)
(-182853.11 0 1.1312376)
(-182877.53 0 1.131502)
(-182902.06 0 1.1317666)
(-182926.48 0 1.1320313)
(-182950.9 0 1.1322962)
(-182975.54 0 1.1325611)
(-183000.07 0 1.1328262)
(-183024.49 0 2.2661828)
(-183049.02 -8.0004451e-13 1.1333567)
(-183073.55 -7.9144297e-13 1.1336222)
(-183098.08 0 1.1338878)
(-183122.72 0 1.1341535)
(-183147.36 0 1.1344193)
(-183171.89 0 1.1346853)
(-183196.53 0 1.1349514)
(-183221.17 0 1.1352175)
(-183245.7 -7.3108617e-13 1.1354839)
(-183270.45 0 1.1357503)
(-183295.09 -7.1379428e-13 1.1360169)
(-183319.73 0 1.1362836)
(-183344.48 0 1.1365504)
(-183369.12 -6.878171e-13 1.1368174)
(-183393.87 0 1.1370844)
(-183418.62 0 2.2747033)
(-183443.26 -6.6179255e-13 2.275238)
(-183468.01 0 1.1378865)
(-183492.76 0 1.138154)
(-183517.51 6.3572052e-13 1.1384217)
(-183542.37 -6.270193e-13 1.1386895)
(-183567.23 0 1.1389575)
(-183591.98 0 2.2784512)
(-183616.73 0 1.1394938)
(-183641.59 0 1.1397622)
(-183666.45 0 1.1400306)
(-183691.31 0 1.1402992)
(-183716.17 0 1.1405679)
(-183741.14 0 1.1408368)
(-183766 -5.4846954e-13 2.2822114)
(-183790.86 5.3971518e-13 1.1413748)
(-183815.83 0 1.1416441)
(-183840.69 0 1.1419134)
(-183865.66 -5.1342014e-13 1.1421829)
(-183890.63 0 1.1424525)
(-183915.6 0 1.1427222)
(-183940.57 -4.8707696e-13 1.1429921)
(-183965.54 0 1.1432621)
(-183990.62 0 1.1435322)
(-184015.59 0 1.1438024)
(-184040.67 0 1.1440728)
(-184065.75 4.4306436e-13 1.1443433)
(-184090.72 -4.3424572e-13 1.1446139)
(-184115.8 0 1.1448847)
(-184140.88 0 1.1451556)
(-184166.07 0 1.1454266)
(-184191.15 0 2.2913954)
(-184216.23 0 1.145969)
(-184241.42 0 2.2924808)
(-184266.5 -3.7236409e-13 2.2930238)
(-184291.58 0 1.1467836)
(-184316.88 0 1.1470553)
(-184342.07 0 2.2946545)
(-184367.15 0 1.1475993)
(-184392.45 0 1.1478715)
(-184417.75 -3.1911143e-13 1.1481437)
(-184442.94 0 2.2968324)
(-184468.13 0 1.1486887)
(-184493.43 -2.9241164e-13 1.1489614)
(-184518.62 0 2.2984685)
(-184543.92 0 1.1495072)
(-184569.33 0 1.1497803)
(-184594.63 -2.5673549e-13 1.1500535)
(-184619.93 2.4780276e-13 1.1503268)
(-184645.23 0 1.1506003)
(-184670.64 0 1.1508738)
(-184695.94 0 1.1511476)
(-184721.35 0 1.1514214)
(-184746.76 -2.0305684e-13 1.1516954)
(-184772.17 0 1.1519695)
(-184797.58 0 1.1522438)
(-184822.99 0 1.1525181)
(-184848.4 0 1.1527927)
(-184874.03 0 2.3061346)
(-184899.11 1.4918003e-13 1.1533421)
(-184925.07 -1.4018128e-13 1.153617)
(-184950.04 0 1.153892)
(-184976.44 0 1.1541672)
(-185000.47 0 2.3088849)
(-185028.16 0 1.2701897)
(-185050.39 0 1.6169908)
(-185081.15 0 1.0397422)
(-185098.74 0 2.0799809)
(-185136.64 0 0.46232836)
(-185143.26 0 3.0058521)
(-185198.21 0 -0.92509855)
(-185177.98 0 5.089258)
(-185274.62 0 -4.5120115)
(-185182.04 -2.2684173e-14 10.530544)
(-185392.1 0 -15.510224)
(-185018.3 0 24.011865)
(-179657.26 3.751166e-12 -34829.958)
(-261489.74 0 -5072.7293)
(-183578.83 1.8521091e-12 -6790.8584)
(-186483.2 0 -198.15763)
(-176989.45 0 -737.75452)
(-180168.23 0 242.30288)
(-178787.17 0 -77.113918)
(-180169.12 -5.4346882e-12 121.2066)
(-179742.11 -3.6072823e-12 -22.042582)
(-180264.75 0 44.095206)
(-180078.76 -1.7876268e-12 -11.026313)
(-180286.72 -1.7796002e-12 11.028825)
(-180212.98 3.5431918e-12 -11.031339)
(-180306.51 0 11.033854)
(-180287.79 -1.7555485e-12 0)
(-180339.5 0 0)
(-180345 -1.7394833e-12 0)
(-180380.2 0 11.043925)
(-180394.5 3.4467994e-12 0)
(-180423.1 0 11.048967)
(-180444 0 11.05149)
(-180469.3 0 0)
(-180491.3 0 0)
(-180515.5 0 0)
(-180537.5 0 0)
(-180561.7 3.3339163e-12 0)
(-180584.8 1.6588761e-12 11.066651)
(-180607.9 0 0)
(-180631 -4.9280922e-12 11.071715)
(-180654.1 0 0)
(-180678.3 0 0)
(-180701.4 0 0)
(-180724.5 0 0)
(-180748.7 0 0)
(-180771.8 0 0)
(-180794.9 -4.7577622e-12 0)
(-180818 0 0)
(-180842.2 0 11.094556)
(-180865.3 0 11.0971)
(-180888.4 0 11.099645)
(-180912.6 0 0)
(-180935.7 1.537067e-12 0)
(-180959.9 -3.0578153e-12 0)
(-180983 0 11.109836)
(-181006.1 1.5125746e-12 0)
(-181030.3 -3.0088016e-12 0)
(-181053.4 0 11.117492)
(-181076.5 0 0)
(-181100.7 1.4798502e-12 0)
(-181123.8 -2.9433137e-12 0)
(-181148 0 0)
(-181172.2 -1.4552557e-12 11.130275)
(-181194.2 0 11.132835)
(-181218.4 0 0)
(-181242.6 1.4306172e-12 11.137959)
(-181265.7 0 0)
(-181289.9 0 0)
(-181313 1.4059346e-12 11.145653)
(-181336.1 0 0)
(-181360.3 0 0)
(-181384.5 0 0)
(-181408.7 1.3729557e-12 0)
(-181431.8 0 0)
(-181454.9 0 0)
(-181479.1 0 0)
(-181503.3 0 0)
(-181527.5 0 0)
(-181550.6 0 11.171379)
(-181573.7 0 0)
(-181597.9 -2.6135224e-12 0)
(-181622.1 0 11.17912)
(-181646.3 -1.2901631e-12 0)
(-181670.5 -2.5637132e-12 0)
(-181693.6 1.273545e-12 11.186872)
(-181716.7 0 0)
(-181742 3.7707217e-12 0)
(-181766.2 0 11.194634)
(-181788.2 0 11.197224)
(-181812.4 -1.2319131e-12 11.199815)
(-181837.7 -2.4471433e-12 0)
(-181860.8 -1.2152252e-12 0)
(-181885 0 0)
(-181909.2 3.5955522e-12 0)
(-181932.3 0 0)
(-181956.5 0 0)
(-181981.8 0 11.217986)
(-182006 3.4951251e-12 11.220587)
(-182028 0 11.223188)
(-182052.2 0 11.225791)
(-182077.5 3.4196466e-12 0)
(-182101.7 0 0)
(-182124.8 0 11.233608)
(-182149 -2.2293547e-12 0)
(-182174.3 0 0)
(-182197.4 0 11.241435)
(-182221.6 0 0)
(-182245.8 1.081e-12 11.24666)
(-182268.9 -1.072568e-12 0)
(-182294.2 0 11.251889)
(-182318.73 -2.1113778e-12 0)
(-182342.27 0 3.3771369)
(-182366.58 0 3.3779225)
(-182390.89 0 4.5049447)
(-182415.09 0 3.3794949)
(-182439.29 -1.013402e-12 3.3802817)
(-182463.49 0 4.5080917)
(-182487.69 9.9645156e-13 4.5091417)
(-182512.11 0 4.5101922)
(-182536.42 -9.7948073e-13 3.3834323)
(-182560.62 0 3.3842209)
(-182584.93 0 3.3850099)
(-182609.24 0 3.3857993)
(-182633.55 -1.8909551e-12 3.3865889)
(-182657.86 -9.3696395e-13 3.387379)
(-182682.28 0 4.5175592)
(-182706.7 -9.199213e-13 3.3889602)
(-182731.01 0 3.3897514)
(-182755.43 0 3.3905429)
(-182779.85 0 3.3913348)
(-182804.16 0 4.5228362)
(-182828.58 0 3.3929197)
(-182853.11 0 3.3937128)
(-182877.53 1.7202194e-12 3.3945062)
(-182902.06 0 3.3952999)
(-182926.48 0 3.396094)
(-182950.9 0 3.3968885)
(-182975.54 0 3.3976834)
(-182999.96 0 4.5313049)
(-183024.49 0 4.5323657)
(-183049.13 8.0004451e-13 3.4000702)
(-183073.55 -7.9144301e-13 4.5344888)
(-183098.08 0 3.4016633)
(-183122.72 0 3.4024604)
(-183147.36 1.5312143e-12 3.403258)
(-183171.89 0 3.4040558)
(-183196.53 -1.4967142e-12 3.404854)
(-183221.17 -1.4794486e-12 4.5408702)
(-183245.7 -7.3108621e-13 3.4064516)
(-183270.45 0 3.407251)
(-183295.09 7.1379428e-13 4.5440676)
(-183319.73 0 3.4088508)
(-183344.48 0 3.4096513)
(-183369.12 -6.8781713e-13 3.4104521)
(-183393.76 0 3.4112534)
(-183418.51 0 4.5494067)
(-183443.37 -6.6179259e-13 4.550476)
(-183468.12 1.3062143e-12 3.4136593)
(-183492.76 0 3.4144621)
(-183517.51 -6.3572052e-13 3.4152652)
(-183542.37 6.270193e-13 3.4160687)
(-183567.12 0 3.4168726)
(-183591.98 0 4.5569024)
(-183616.84 0 3.4184814)
(-183641.59 0 3.4192865)
(-183666.45 0 3.4200918)
(-183691.31 0 3.4208976)
(-183716.17 0 3.4217038)
(-183741.03 0 3.4225103)
(-183766 -5.4846958e-13 4.564423)
(-183790.97 -1.6191456e-12 3.4241245)
(-183815.83 0 4.5665762)
(-183840.69 0 4.5676537)
(-183865.66 -5.1342017e-13 3.4265487)
(-183890.63 1.0092889e-12 3.4273575)
(-183915.6 0 3.4281667)
(-183940.57 -4.8707699e-13 3.4289763)
(-183965.54 9.5657037e-13 3.4297862)
(-183990.62 0 3.4305966)
(-184015.59 0 3.4314073)
(-184040.67 0 3.4322184)
(-184065.75 -1.3291931e-12 4.5773732)
(-184090.72 -4.3424576e-13 3.4338418)
(-184115.8 0 3.434654)
(-184140.88 0 3.4354667)
(-184165.96 0 3.4362797)
(-184191.15 -7.9783447e-13 4.5827909)
(-184216.23 0 3.4379069)
(-184241.31 0 4.5849615)
(-184266.61 -3.7236414e-13 4.5860476)
(-184291.69 0 4.5871342)
(-184316.77 0 3.441166)
(-184342.07 0 4.589309)
(-184367.26 0 3.4427979)
(-184392.45 6.5600095e-13 3.4436144)
(-184417.64 -3.1911146e-13 3.4444313)
(-184442.94 0 4.5936647)
(-184468.24 0 4.594755)
(-184493.32 2.9241164e-13 3.4468843)
(-184518.62 0 4.596937)
(-184544.03 0 3.4485216)
(-184569.33 5.3132548e-13 3.4493408)
(-184594.63 -2.5673552e-13 3.4501604)
(-184619.93 2.4780279e-13 3.4509804)
(-184645.23 0 3.4518008)
(-184670.64 0 3.4526216)
(-184695.94 0 4.6045903)
(-184721.35 4.2403407e-13 3.4542643)
(-184746.76 -2.0305687e-13 3.4550863)
(-184772.17 0 3.4559086)
(-184797.58 0 3.4567313)
(-184822.99 0 3.4575545)
(-184848.29 0 3.458378)
(-184874.03 0 4.6122692)
(-184899.22 -4.4754011e-13 3.4600262)
(-184925.07 -1.4018131e-13 3.4608509)
(-184950.04 0 3.461676)
(-184976.33 0 3.4625015)
(-185000.46 2.2630307e-13 4.6177698)
(-185028.23 0 3.5796254)
(-185050.42 0 4.1579764)
(-185081.1 1.7214476e-13 3.2347536)
(-185098.79 0 4.7377343)
(-185136.55 0 2.542806)
(-185143.39 0 5.8960946)
(-185198.02 0 0.5781866)
(-185178.32 0 8.9062015)
(-185274.11 0 -4.6277041)
(-185183.09 2.2684173e-14 16.547998)
(-185390.82 0 -22.4551)
(-185019.1 0 36.978735)
(-177988.35 -3.751166e-12 -53103.034)
(-259734.53 0 -12313.198)
(-183151.24 -3.7042816e-12 -9025.1279)
(-186141.12 0 -924.73558)
(-176948.77 0 -748.76578)
(-180135.22 -3.6548373e-12 198.24781)
(-178790.47 0 11.016274)
(-180168.02 -1.0266599e-18 110.18782)
(-179746.51 3.6072823e-12 22.042582)
(-180265.85 -3.5912093e-12 33.071404)
(-180079.86 3.5752536e-12 0)
(-180286.72 7.1184008e-12 11.028825)
(-180211.88 -7.0863835e-12 0)
(-180306.51 0 11.033854)
(-180288.89 3.5110969e-12 0)
(-180339.5 -3.4950317e-12 11.038887)
(-180343.9 3.4789666e-12 0)
(-180380.2 0 11.043925)
(-180395.6 -6.8935987e-12 0)
(-180423.1 0 0)
(-180444 3.4145947e-12 0)
(-180469.3 0 0)
(-180491.3 3.382352e-12 0)
(-180515.5 0 11.059065)
(-180537.5 3.3500712e-12 11.061593)
(-180560.6 -6.6678326e-12 0)
(-180584.8 -3.3177521e-12 11.066651)
(-180607.9 0 11.069182)
(-180631 3.2853948e-12 11.071715)
(-180655.2 0 0)
(-180678.3 3.2529991e-12 0)
(-180701.4 -3.2367868e-12 11.079318)
(-180724.5 3.220565e-12 0)
(-180748.7 3.2043335e-12 0)
(-180771.8 0 11.086932)
(-180794.9 3.1718415e-12 11.089472)
(-180818 0 11.092013)
(-180841.1 0 0)
(-180865.3 0 11.0971)
(-180889.5 0 0)
(-180912.6 0 11.102191)
(-180935.7 -3.0741339e-12 0)
(-180958.8 3.0578153e-12 0)
(-180983 0 11.109836)
(-181007.2 1.0353813e-19 11.112387)
(-181029.2 3.0088016e-12 11.114939)
(-181053.4 2.9924444e-12 11.117492)
(-181077.6 0 11.120046)
(-181100.7 -2.9597004e-12 11.122601)
(-181123.8 2.9433137e-12 11.125158)
(-181146.9 2.9269175e-12 0)
(-181171.1 5.8210227e-12 11.130275)
(-181195.3 2.8940956e-12 11.132835)
(-181218.4 0 0)
(-181242.6 1.037764e-19 11.137959)
(-181266.8 2.8447892e-12 11.140522)
(-181288.8 0 11.143087)
(-181313 1.0384809e-19 11.145653)
(-181337.2 0 0)
(-181360.3 -2.77891e-12 0)
(-181384.5 0 0)
(-181408.7 0 0)
(-181431.8 2.7293973e-12 11.158501)
(-181454.9 2.7128734e-12 0)
(-181479.1 0 0)
(-181503.3 -2.679796e-12 0)
(-181526.4 0 0)
(-181550.6 0 11.171379)
(-181574.8 0 0)
(-181597.9 2.6135224e-12 0)
(-181622.1 0 0)
(-181646.3 2.5803262e-12 0)
(-181669.4 2.5637132e-12 0)
(-181693.6 0 11.186872)
(-181717.8 0 0)
(-181740.9 -2.5138144e-12 0)
(-181765.1 0 11.194634)
(-181789.3 2.4804989e-12 11.197224)
(-181813.5 2.463826e-12 0)
(-181837.7 2.4471433e-12 0)
(-181860.8 2.4304504e-12 11.205001)
(-181885 0 0)
(-181909.2 -2.3970348e-12 11.210191)
(-181932.3 0 0)
(-181956.5 2.3635793e-12 0)
(-181980.7 2.3468365e-12 0)
(-182004.9 -2.3300835e-12 11.220587)
(-182029.1 0 11.223188)
(-182053.3 2.2965476e-12 0)
(-182077.5 -2.2797644e-12 0)
(-182100.6 -2.2629713e-12 11.231001)
(-182124.8 0 11.233608)
(-182150.1 4.4587094e-12 0)
(-182173.2 0 11.238825)
(-182197.4 2.1956977e-12 11.241435)
(-182221.6 0 0)
(-182245.8 -2.1620002e-12 11.24666)
(-182270 2.1451361e-12 11.249274)
(-182294.2 -2.1282621e-12 0)
(-182318.51 2.1113778e-12 11.254505)
(-182342.05 0 5.6285614)
(-182366.58 0 5.6298709)
(-182390.89 0 5.6311809)
(-182415.09 2.0437392e-12 6.7589898)
(-182439.18 2.026804e-12 5.6338028)
(-182463.49 2.0098588e-12 6.7621376)
(-182487.8 0 5.6364272)
(-182512.11 -1.9759375e-12 5.6377403)
(-182536.42 1.9589614e-12 5.639054)
(-182560.62 1.9419753e-12 6.7684419)
(-182584.93 0 5.6416832)
(-182609.24 0 6.7715984)
(-182633.55 1.8909551e-12 5.6443149)
(-182657.86 1.8739279e-12 5.6456316)
(-182682.28 0 5.646949)
(-182706.7 -5.262695e-20 5.648267)
(-182731.01 0 5.6495856)
(-182755.43 0 5.6509049)
(-182779.74 0 5.6522247)
(-182804.16 0 6.7842542)
(-182828.69 0 5.6548662)
(-182853.11 -1.7373395e-12 5.6561879)
(-182877.53 -1.7202194e-12 5.6575102)
(-182902.06 1.7030891e-12 5.6588332)
(-182926.48 1.6859484e-12 6.792188)
(-182950.9 1.6687973e-12 5.6614808)
(-182975.43 0 5.6628057)
(-182999.96 0 6.7969573)
(-183024.6 0 5.6654571)
(-183049.02 0 6.8001405)
(-183073.55 1.582886e-12 6.8017332)
(-183098.19 0 5.6694389)
(-183122.72 0 5.6707675)
(-183147.36 -1.5312143e-12 5.6720966)
(-183171.89 1.5139696e-12 6.8081116)
(-183196.42 2.9934285e-12 5.6747567)
(-183221.17 2.9588972e-12 6.8113053)
(-183245.81 1.4621724e-12 5.6774194)
(-183270.34 -1.4448858e-12 5.6787516)
(-183295.09 0 6.8161014)
(-183319.84 1.4102811e-12 5.681418)
(-183344.48 -1.3929629e-12 5.6827521)
(-183369.12 2.7512685e-12 6.8209043)
(-183393.76 0 5.6854223)
(-183418.51 0 5.6867583)
(-183443.37 1.3235851e-12 5.688095)
(-183468.12 -2.6124287e-12 5.6894322)
(-183492.76 0 6.8289242)
(-183517.51 0 5.6921087)
(-183542.37 0 5.6934479)
(-183567.12 0 5.6947876)
(-183591.98 1.219202e-12 5.6961281)
(-183616.84 -1.2017677e-12 5.6974691)
(-183641.59 1.1843229e-12 5.6988108)
(-183666.45 0 5.7001531)
(-183691.31 -1.1494013e-12 5.7014961)
(-183716.17 1.1319246e-12 5.7028396)
(-183741.03 -1.1144372e-12 5.7041838)
(-183766 2.1938783e-12 5.7055287)
(-183790.86 1.0794304e-12 5.7068742)
(-183815.72 0 6.8498643)
(-183840.8 0 6.8514805)
(-183865.77 1.0268403e-12 5.7109145)
(-183890.63 -2.0185778e-12 6.854715)
(-183915.6 0 5.7136111)
(-183940.57 1.9483079e-12 6.8579525)
(-183965.54 -1.9131408e-12 5.7163104)
(-183990.62 9.3897616e-13 5.7176609)
(-184015.59 0 5.7190122)
(-184040.56 -9.0375537e-13 5.720364)
(-184065.75 8.8612876e-13 6.8660598)
(-184090.83 1.736983e-12 5.7230697)
(-184115.8 -8.5084345e-13 5.7244234)
(-184140.88 8.3318461e-13 5.7257778)
(-184165.96 -8.1551495e-13 5.7271329)
(-184191.15 1.595669e-12 5.7284886)
(-184216.23 7.8014326e-13 5.7298449)
(-184241.31 -7.6244118e-13 5.7312019)
(-184266.5 7.4472823e-13 5.7325595)
(-184291.69 0 6.8807013)
(-184316.88 0 5.7352767)
(-184342.07 0 5.7366362)
(-184367.26 6.7376819e-13 5.7379964)
(-184392.45 -1.3120019e-12 5.7393573)
(-184417.64 1.2764458e-12 5.7407188)
(-184442.83 0 5.7420809)
(-184468.24 -6.0263416e-13 6.8921324)
(-184493.43 0 6.8937685)
(-184518.62 -5.670017e-13 5.7461712)
(-184544.03 0 5.7475359)
(-184569.33 -5.3132548e-13 5.7489013)
(-184594.63 5.13471e-13 5.7502673)
(-184619.93 -4.9560555e-13 6.9019608)
(-184645.23 0 5.7530013)
(-184670.53 -4.5984183e-13 5.7543693)
(-184695.94 0 6.9068855)
(-184721.46 -4.2403407e-13 5.7571072)
(-184746.76 4.0611372e-13 6.9101725)
(-184772.17 3.8818243e-13 5.7598477)
(-184797.58 0 6.9134627)
(-184822.99 0 6.9151089)
(-184848.29 0 5.7639633)
(-184874.03 -3.1634675e-13 5.7653365)
(-184899.22 2.9836009e-13 6.9200524)
(-184925.07 5.6072523e-13 5.7680848)
(-184950.04 -2.6235383e-13 6.923352)
(-184976.33 2.4433428e-13 6.925003)
(-185000.46 -2.2630307e-13 5.7722123)
(-185028.2 0 5.8890612)
(-185050.43 1.9020787e-13 6.2369646)
(-185081.09 -1.7214476e-13 5.7763456)
(-185098.8 -1.5406779e-13 6.4710517)
(-185136.53 0 5.4323582)
(-185143.44 1.1788232e-13 7.0521916)
(-185197.93 0 4.3942181)
(-185178.47 8.1650237e-14 8.4435416)
(-185273.9 0 1.3883112)
(-185183.74 -4.5368615e-14 12.382068)
(-185390.16 0 -12.732273)
(-185019.67 -9.0295199e-15 26.281067)
(-175583.57 0 -74753.495)
(-257082.99 0 -17914.107)
(-182441.12 -7.408166e-12 -12282.979)
(-185656.05 0 -1387.1034)
(-176877.31 0 -946.96849)
(-180092.3 3.6548373e-12 253.31665)
(-178795.97 -7.2785286e-12 44.065096)
(-180168.01 1.0869383e-11 143.24417)
(-179749.81 -7.2145657e-12 33.063873)
(-180266.95 3.5912092e-12 55.119007)
(-180080.96 -7.1505075e-12 11.026313)
(-180286.72 -3.5592005e-12 22.057651)
(-180212.98 3.5431918e-12 11.031339)
(-180306.51 0 11.033854)
(-180287.79 7.0221938e-12 0)
(-180339.5 3.4950317e-12 11.038887)
(-180345 6.9579332e-12 0)
(-180380.2 0 0)
(-180395.6 3.4467993e-12 11.046445)
(-180423.1 -6.8614022e-12 11.048967)
(-180444 -3.4145947e-12 0)
(-180469.3 0 11.054014)
(-180490.2 -3.382352e-12 11.056539)
(-180514.4 0 11.059065)
(-180538.6 -3.3500712e-12 11.061593)
(-180561.7 1.0001749e-11 11.064122)
(-180583.7 -6.6355045e-12 0)
(-180607.9 -6.6031567e-12 11.069182)
(-180632.1 -6.5707899e-12 0)
(-180655.2 0 11.074248)
(-180677.2 -3.2529991e-12 11.076782)
(-180701.4 3.2367868e-12 11.079318)
(-180725.6 3.2205652e-12 11.081855)
(-180747.6 -3.2043335e-12 11.084393)
(-180770.7 6.3761848e-12 11.086932)
(-180794.9 0 11.089472)
(-180819.1 -6.3111624e-12 11.092013)
(-180842.2 0 11.094556)
(-180865.3 0 0)
(-180888.4 0 0)
(-180912.6 6.1808856e-12 11.102191)
(-180936.8 -6.1482681e-12 11.104738)
(-180958.8 -6.1156309e-12 11.107286)
(-180981.9 0 0)
(-181006.1 -9.0754483e-12 11.112387)
(-181030.3 -6.0176035e-12 11.114939)
(-181053.4 -2.9924444e-12 0)
(-181076.5 0 11.120046)
(-181100.7 0 11.122601)
(-181124.9 -5.8866278e-12 11.125158)
(-181148 -2.9269175e-12 11.127716)
(-181171.1 -2.9105114e-12 0)
(-181195.3 -2.8940956e-12 0)
(-181218.4 -5.7553398e-12 11.135396)
(-181241.5 -2.8612345e-12 0)
(-181265.7 -2.8447892e-12 11.140522)
(-181289.9 -5.6566683e-12 11.143087)
(-181314.1 -8.4356078e-12 0)
(-181337.2 -5.590789e-12 11.148221)
(-181360.3 2.77891e-12 11.150789)
(-181384.5 -5.5248314e-12 11.153359)
(-181407.6 -2.7459114e-12 11.155929)
(-181431.8 -2.7293973e-12 11.158501)
(-181456 -2.7128734e-12 11.161075)
(-181479.1 0 11.163649)
(-181503.3 2.679796e-12 11.166224)
(-181526.4 0 11.168801)
(-181550.6 -5.2933582e-12 0)
(-181574.8 0 11.173958)
(-181597.9 -5.2270451e-12 11.176538)
(-181622.1 0 11.17912)
(-181646.3 5.1606526e-12 11.181703)
(-181669.4 -5.1274265e-12 11.184287)
(-181693.6 0 0)
(-181717.8 0 11.189458)
(-181740.9 5.0276291e-12 11.192045)
(-181765.1 4.9943234e-12 0)
(-181789.3 -2.4804989e-12 0)
(-181813.5 4.9276523e-12 11.199815)
(-181836.6 -4.8942868e-12 11.202407)
(-181860.8 0 11.205001)
(-181885 -4.8274958e-12 11.207595)
(-181909.2 4.7940701e-12 11.210191)
(-181933.4 0 11.212788)
(-181956.5 -2.3635793e-12 11.215386)
(-181980.7 -7.0405096e-12 0)
(-182004.9 4.6601671e-12 0)
(-182029.1 0 0)
(-182053.3 -6.889643e-12 11.225791)
(-182076.4 4.559529e-12 11.228396)
(-182100.6 2.2629713e-12 11.231001)
(-182125.9 0 0)
(-182149 -6.6880643e-12 11.236216)
(-182173.2 0 11.238825)
(-182198.5 -6.5870931e-12 0)
(-182221.6 0 11.244047)
(-182244.7 2.1620002e-12 0)
(-182270 0 11.249274)
(-182294.2 2.1282621e-12 0)
(-182318.18 -4.222756e-12 11.254505)
(-182342.82 4.188967e-12 7.879986)
(-182366.58 -4.155158e-12 7.8818192)
(-182390.78 0 7.8836533)
(-182415.09 -2.0437392e-12 9.0119866)
(-182439.29 0 7.887324)
(-182463.49 -6.0295765e-12 7.8891605)
(-182487.8 0 7.890998)
(-182512.11 1.9759375e-12 7.8928363)
(-182536.31 3.9179231e-12 9.0224863)
(-182560.62 -1.9419753e-12 9.0245892)
(-182584.93 0 9.0266931)
(-182609.24 0 9.028798)
(-182633.66 0 7.9020408)
(-182657.86 0 9.0330106)
(-182682.28 -3.7137811e-12 7.9057286)
(-182706.7 5.5195281e-12 9.0372272)
(-182731.01 0 7.9094199)
(-182755.43 0 9.0414478)
(-182779.74 0 9.0435595)
(-182804.16 0 7.9149632)
(-182828.69 0 7.9168127)
(-182853.11 -1.7373397e-12 7.9186631)
(-182877.53 3.4404391e-12 7.9205143)
(-182901.95 -1.7030891e-12 7.9223664)
(-182926.48 -1.6859484e-12 9.0562507)
(-182951.01 -1.6687973e-12 7.9260733)
(-182975.43 3.3032718e-12 7.9279279)
(-182999.96 -3.2689282e-12 7.9297835)
(-183024.49 0 7.9316399)
(-183049.02 0 9.066854)
(-183073.66 3.1657722e-12 7.9353554)
(-183098.19 0 7.9372145)
(-183122.72 0 7.9390744)
(-183147.25 3.0624288e-12 7.9409352)
(-183171.89 -4.5419089e-12 9.0774821)
(-183196.53 -1.4967143e-12 7.9446594)
(-183221.17 -4.4383461e-12 7.9465228)
(-183245.81 2.924345e-12 9.083871)
(-183270.34 -1.444886e-12 7.9502523)
(-183295.09 0 7.9521183)
(-183319.84 -1.4102811e-12 7.9539852)
(-183344.37 4.1788889e-12 9.0924034)
(-183369.12 -1.3756343e-12 9.0945391)
(-183393.87 0 9.0966757)
(-183418.51 2.6818909e-12 7.9614616)
(-183443.37 0 7.9633329)
(-183468.01 3.9186433e-12 9.1030916)
(-183492.76 0 9.1052322)
(-183517.62 0 7.9689521)
(-183542.37 0 7.970827)
(-183567.12 2.4732513e-12 7.9727027)
(-183591.98 -1.219202e-12 7.9745793)
(-183616.84 3.6053033e-12 9.1159506)
(-183641.59 -1.1843229e-12 7.9783351)
(-183666.45 0 7.9802143)
(-183691.31 3.448204e-12 7.9820944)
(-183716.17 -1.1319246e-12 7.9839755)
(-183741.03 3.3433117e-12 7.9858574)
(-183766 -1.0969392e-12 7.9877402)
(-183790.86 -2.1588611e-12 9.1309987)
(-183815.72 0 7.9915084)
(-183840.8 -2.0887623e-12 7.9933939)
(-183865.66 0 9.1374631)
(-183890.63 3.027867e-12 9.13962)
(-183915.6 0 9.1417778)
(-183940.57 -9.7415401e-13 9.1439367)
(-183965.65 2.8697114e-12 8.0028345)
(-183990.62 -9.3897616e-13 8.0047253)
(-184015.59 -1.8427424e-12 9.1504195)
(-184040.56 9.0375537e-13 8.0085096)
(-184065.75 -1.7722578e-12 8.0104031)
(-184090.83 -8.6849154e-13 9.1569114)
(-184115.8 2.5525305e-12 9.1590775)
(-184140.88 -8.3318461e-13 8.016089)
(-184165.96 2.446545e-12 8.017986)
(-184191.15 7.9783468e-13 8.019884)
(-184216.23 -7.8014326e-13 9.1677519)
(-184241.31 2.2873237e-12 8.0236826)
(-184266.5 0 8.0255833)
(-184291.69 1.4540092e-12 8.0274849)
(-184316.88 0 8.0293874)
(-184342.07 0 8.0312908)
(-184367.26 -6.7376819e-13 9.1807943)
(-184392.45 1.9680032e-12 8.0351002)
(-184417.64 -6.3822295e-13 9.18515)
(-184442.83 1.2408681e-12 8.0389133)
(-184468.13 6.0263416e-13 8.0408212)
(-184493.43 0 9.1916914)
(-184518.73 1.7010052e-12 8.0446397)
(-184544.03 0 8.0465503)
(-184569.33 1.0626512e-12 8.0484618)
(-184594.52 0 9.2004277)
(-184619.93 -9.912114e-13 9.2026144)
(-184645.34 0 9.2048021)
(-184670.53 1.3795256e-12 8.056117)
(-184695.94 0 8.0580331)
(-184721.35 8.480684e-13 8.05995)
(-184746.76 8.1222773e-13 9.2135634)
(-184772.17 -3.8818243e-13 8.0637867)
(-184797.47 7.4048024e-13 9.2179502)
(-184823.1 0 9.2201453)
(-184848.4 6.6864452e-13 8.0695486)
(-184873.92 3.1634675e-13 8.0714711)
(-184899.22 -5.9672047e-13 9.2267366)
(-184925.07 2.8036279e-13 8.0753188)
(-184949.93 7.8706167e-13 9.231136)
(-184976.44 -2.4433428e-13 9.2333373)
(-185000.56 4.526064e-13 8.0810972)
(-185028.18 0 8.4294405)
(-185050.43 -1.9020787e-13 8.6624508)
(-185081.08 3.4428979e-13 8.2024108)
(-185098.83 4.6220354e-13 8.8976961)
(-185136.5 2.7196816e-13 7.744)
(-185143.49 -1.1788232e-13 9.5956049)
(-185197.88 0 6.8226018)
(-185178.61 -8.1650237e-14 10.988171)
(-185273.73 1.2706864e-13 3.3550855)
(-185184.43 4.5368615e-14 15.159354)
(-185389.5 0 -13.889752)
(-185020.39 9.0295199e-15 31.815142)
(-172312.01 7.4981391e-12 -97152.04)
(-253488.86 0 -22755.758)
(-181500.17 7.408166e-12 -15683.911)
(-185008.16 0 -1706.3573)
(-176784.96 7.3423722e-12 -1189.2162)
(-180036.18 -7.3096855e-12 330.41302)
(-178801.47 -1.0264262e-18 55.08137)
(-180169.1 -1.4492516e-11 187.31929)
(-179755.31 -8.2151491e-19 44.085165)
(-180268.04 -7.1824208e-12 66.142808)
(-180083.16 -2.054723e-19 11.026313)
(-180286.72 0 22.057651)
(-180212.98 0 11.031339)
(-180307.61 0 11.033854)
(-180288.89 -1.4044388e-11 11.03637)
(-180339.5 0 11.038887)
(-180345 -1.3915867e-11 11.041405)
(-180379.1 0 11.043925)
(-180394.5 0 11.046445)
(-180424.2 6.8614022e-12 11.048967)
(-180444 0 11.05149)
(-180468.2 0 11.054014)
(-180491.3 0 11.056539)
(-180515.5 -6.7324328e-12 11.059065)
(-180537.5 0 11.061593)
(-180561.7 -6.6678328e-12 11.064122)
(-180584.8 -2.0622401e-19 11.066651)
(-180607.9 6.6031567e-12 11.069182)
(-180631 6.5707898e-12 11.071714)
(-180654.1 0 11.074248)
(-180678.3 0 11.076782)
(-180701.4 0 11.079318)
(-180724.5 -6.4411302e-12 11.081855)
(-180748.7 0 11.084393)
(-180771.8 -6.3761847e-12 11.086932)
(-180794.9 0 0)
(-180818 1.2622325e-11 11.092013)
(-180842.2 0 11.094556)
(-180866.4 6.2460628e-12 11.0971)
(-180888.4 0 11.099645)
(-180911.5 0 0)
(-180935.7 6.148268e-12 11.104738)
(-180959.9 6.1156309e-12 11.107286)
(-180983 0 11.109836)
(-181006.1 6.0502989e-12 11.112387)
(-181030.3 1.2035207e-11 11.114939)
(-181053.4 0 11.117492)
(-181076.5 5.9521549e-12 11.120046)
(-181100.7 0 0)
(-181123.8 1.1773256e-11 11.125158)
(-181148 0 11.127716)
(-181172.2 0 11.130275)
(-181194.2 0 11.132835)
(-181218.4 1.151068e-11 11.135396)
(-181242.6 0 11.137959)
(-181265.7 0 11.140522)
(-181289.9 5.6566683e-12 11.143087)
(-181313 5.6237386e-12 11.145653)
(-181336.1 1.1181578e-11 11.148221)
(-181360.3 0 11.150789)
(-181384.5 1.1049663e-11 11.153359)
(-181408.7 0 11.155929)
(-181431.8 0 11.158501)
(-181454.9 0 11.161075)
(-181479.1 0 11.163649)
(-181503.3 0 11.166224)
(-181527.5 0 11.168801)
(-181550.6 1.0586717e-11 11.171379)
(-181573.7 0 11.173958)
(-181597.9 1.045409e-11 11.176539)
(-181622.1 5.1938591e-12 11.17912)
(-181646.3 -5.1606526e-12 11.181703)
(-181670.5 1.0254853e-11 11.184287)
(-181693.6 0 11.186872)
(-181716.7 5.060915e-12 11.189458)
(-181742 -1.0055258e-11 11.192045)
(-181766.2 2.0860893e-19 11.194634)
(-181788.2 -4.960998e-12 11.197224)
(-181812.4 -9.8553048e-12 11.199815)
(-181837.7 4.8942868e-12 11.202407)
(-181860.8 0 11.205001)
(-181885 9.6549918e-12 11.207595)
(-181909.2 -9.5881404e-12 11.210191)
(-181932.3 4.7606247e-12 11.212788)
(-181957.6 0 11.215386)
(-181981.8 9.3873463e-12 11.217986)
(-182004.9 -4.6601671e-12 11.220587)
(-182028 4.6266415e-12 11.223188)
(-182052.2 9.186191e-12 11.225791)
(-182077.5 -9.1190583e-12 11.228396)
(-182101.7 4.5259429e-12 0)
(-182124.8 0 11.233608)
(-182149 8.9174194e-12 11.236216)
(-182174.3 -4.4250628e-12 11.238825)
(-182197.4 4.3913954e-12 11.241435)
(-182221.6 0 11.244047)
(-182245.8 0 11.24666)
(-182270 -4.2902726e-12 0)
(-182294.2 0 11.251889)
(-182317.74 8.4455122e-12 11.254505)
(-182342.38 -4.188967e-12 11.257123)
(-182366.58 8.3103161e-12 10.133768)
(-182390.78 0 10.136126)
(-182415.09 4.0874788e-12 10.138485)
(-182439.29 0 11.267606)
(-182463.49 8.0394356e-12 10.143206)
(-182487.8 0 10.145569)
(-182512 0 10.147932)
(-182536.31 -7.8358464e-12 11.278108)
(-182560.62 0 10.152663)
(-182584.93 3.8499581e-12 11.283366)
(-182609.35 0 10.157398)
(-182633.55 3.7819107e-12 11.28863)
(-182657.86 0 11.291263)
(-182682.28 7.4275624e-12 10.164508)
(-182706.7 -3.6796854e-12 11.296534)
(-182731.01 3.6455695e-12 11.299171)
(-182755.32 0 11.30181)
(-182779.85 0 11.304449)
(-182804.27 -3.5430973e-12 10.176381)
(-182828.69 0 10.178759)
(-182853.11 6.9493586e-12 11.312376)
(-182877.53 -3.4404391e-12 11.31502)
(-182901.95 3.4061786e-12 10.1859)
(-182926.48 3.3718971e-12 10.188282)
(-182951.01 3.337595e-12 10.190666)
(-182975.43 -6.6065438e-12 10.19305)
(-182999.96 6.5378566e-12 10.195436)
(-183024.49 0 10.197823)
(-183049.02 0 10.200211)
(-183073.66 -3.1657722e-12 10.2026)
(-183098.19 0 11.338878)
(-183122.72 0 11.341535)
(-183147.25 -3.0624288e-12 11.344193)
(-183171.89 6.0558788e-12 10.212167)
(-183196.53 0 11.349513)