/*--------------------------------*- C++ -*----------------------------------*\
  =========                 |
  \\      /  F ield         | OpenFOAM: The Open Source CFD Toolbox
   \\    /   O peration     | Website:  https://openfoam.org
    \\  /    A nd           | Version:  6
     \\/     M anipulation  |
\*---------------------------------------------------------------------------*/
FoamFile
{
    version     2.0;
    format      ascii;
    class       volVectorField;
    location    "10000";
    object      U;
}
// * * * * * * * * * * * * * * * * * * * * * * * * * * * * * * * * * * * * * //

dimensions      [0 1 -1 0 0 0 0];

internalField   nonuniform List<vector> 
4840
(
(1.3875139 0 0.00987499)
(1.2150256 0 0.0081411093)
(1.064226 -9.503401e-21 0.0054454646)
(0.99669219 0 0.002635324)
(0.95921593 0 0.0012876894)
(0.94503417 0 0.00054336775)
(0.93758348 0 0.00024339506)
(0.93523725 -9.2740243e-21 9.8192065e-05)
(0.93369113 0 4.9159609e-05)
(0.93324568 0 2.470698e-05)
(0.93271679 9.1390622e-21 1.9240798e-05)
(0.93246528 9.0939042e-21 1.5276768e-05)
(0.93211094 0 1.5360024e-05)
(0.93184572 0 1.4585555e-05)
(0.93152888 8.9588044e-21 1.4913368e-05)
(0.93124615 0 1.4682014e-05)
(0.93094118 8.8687714e-21 1.4839484e-05)
(0.93065024 0 1.4744465e-05)
(0.93035008 0 1.4805967e-05)
(0.9300558 0 1.4762029e-05)
(0.92975774 0 1.4783475e-05)
(0.92946217 0 1.4761485e-05)
(0.92916505 0 1.4766902e-05)
(0.92886899 0 1.4754403e-05)
(0.92857233 0 1.4753341e-05)
(0.92827613 0 1.4744868e-05)
(0.9279797 -8.41946e-21 1.4741158e-05)
(0.92768349 0 1.4734376e-05)
(0.92738721 -8.3297648e-21 1.4729571e-05)
(0.92709105 0 1.4723491e-05)
(0.92679489 0 1.4718235e-05)
(0.9264988 0 1.4712457e-05)
(0.92620274 0 1.4707013e-05)
(0.92590673 0 1.4701352e-05)
(0.92561076 0 1.469584e-05)
(0.92531484 -8.0162686e-21 1.4690233e-05)
(0.92501896 0 1.4684683e-05)
(0.92472313 0 1.4679102e-05)
(0.92442734 0 1.4673547e-05)
(0.9241316 0 1.4667969e-05)
(0.9238359 0 1.4662404e-05)
(0.92354024 -7.7480988e-21 1.465684e-05)
(0.92324463 0 1.4651279e-05)
(0.92294906 0 1.4645711e-05)
(0.92265354 -7.6142014e-21 1.464015e-05)
(0.92235806 0 1.4634596e-05)
(0.92206263 0 1.4629036e-05)
(0.92176724 0 1.4623476e-05)
(0.92147189 -7.435866e-21 1.4617924e-05)
(0.92117659 0 1.4612374e-05)
(0.92088134 0 1.4606817e-05)
(0.92058612 7.3022602e-21 1.4601261e-05)
(0.92029096 0 1.4595713e-05)
(0.91999583 0 1.4590161e-05)
(0.91970075 -7.1687797e-21 1.4584608e-05)
(0.91940572 0 1.457906e-05)
(0.91911073 0 1.4573517e-05)
(0.91881578 -7.0354243e-21 1.4567965e-05)
(0.91852088 0 1.4562422e-05)
(0.91822603 0 1.4556879e-05)
(0.91793121 0 1.4551341e-05)
(0.91763644 -6.8578117e-21 1.4545794e-05)
(0.91734172 0 1.4540257e-05)
(0.91704704 0 1.4534714e-05)
(0.91675241 0 1.4529181e-05)
(0.91645781 0 1.4523638e-05)
(0.91616327 0 1.4518101e-05)
(0.91586877 0 1.4512569e-05)
(0.91557431 0 1.4507034e-05)
(0.91527989 0 1.4501502e-05)
(0.91498552 0 1.4495971e-05)
(0.9146912 6.4147542e-21 1.4490443e-05)
(0.91439692 0 1.4484914e-05)
(0.91410268 6.3263098e-21 1.4479382e-05)
(0.91380849 0 1.4473857e-05)
(0.91351434 6.2379211e-21 1.4468336e-05)
(0.91322024 0 1.4462804e-05)
(0.91292618 0 1.4457278e-05)
(0.91263216 6.1054425e-21 1.4451763e-05)
(0.91233819 0 1.4446237e-05)
(0.91204427 6.0171931e-21 1.4440718e-05)
(0.91175038 0 1.4435196e-05)
(0.91145655 5.9289995e-21 1.4429686e-05)
(0.91116275 0 1.4424158e-05)
(0.910869 0 1.4418643e-05)
(0.9105753 0 1.441313e-05)
(0.91028164 5.7527795e-21 1.4407622e-05)
(0.90998802 0 1.4402106e-05)
(0.90969445 0 1.4396593e-05)
(0.90940092 5.6207609e-21 1.4391094e-05)
(0.90910744 0 1.4385575e-05)
(0.908814 0 1.4380071e-05)
(0.90852061 0 1.4374564e-05)
(0.90822725 0 1.4369062e-05)
(0.90793395 0 1.4363552e-05)
(0.90764069 0 1.435805e-05)
(0.90734747 5.3132059e-21 1.4352549e-05)
(0.90705429 5.2693252e-21 1.4347053e-05)
(0.90676116 0 1.4341546e-05)
(0.90646808 0 1.4336051e-05)
(0.90617504 0 1.4330555e-05)
(0.90588204 0 1.4325054e-05)
(0.90558909 0 1.431956e-05)
(0.90529618 0 1.4314065e-05)
(0.90500332 4.9625518e-21 1.4308573e-05)
(0.9047105 0 1.430308e-05)
(0.90441772 4.8750279e-21 1.4297589e-05)
(0.90412499 0 1.4292099e-05)
(0.9038323 4.78756e-21 1.4286614e-05)
(0.90353966 0 1.4281125e-05)
(0.90324706 0 1.4275635e-05)
(0.90295451 0 1.4270157e-05)
(0.902662 0 1.4264668e-05)
(0.90236953 4.5691346e-21 1.4259184e-05)
(0.90207711 0 1.4253701e-05)
(0.90178473 4.4818623e-21 1.4248226e-05)
(0.9014924 0 1.4242743e-05)
(0.90120011 0 1.4237264e-05)
(0.90090787 0 1.4231784e-05)
(0.90061566 0 1.4226317e-05)
(0.90032351 0 1.4220832e-05)
(0.9000314 0 1.421536e-05)
(0.89973933 0 1.420989e-05)
(0.8994473 0 1.4204413e-05)
(0.89915532 0 1.4198941e-05)
(0.89886339 0 1.4193471e-05)
(0.8985715 0 1.4188014e-05)
(0.89827965 0 1.4182538e-05)
(0.89798785 0 1.4177075e-05)
(0.89769609 3.872523e-21 1.4171609e-05)
(0.89740437 3.8291037e-21 1.416615e-05)
(0.8971127 0 1.416068e-05)
(0.89682108 0 1.415522e-05)
(0.8965295 0 1.4149767e-05)
(0.89623796 0 1.4144303e-05)
(0.89594646 0 1.4138843e-05)
(0.89565501 0 1.413339e-05)
(0.89536361 3.5255609e-21 1.4127933e-05)
(0.89507225 0 1.4122476e-05)
(0.89478093 3.4389605e-21 1.4117023e-05)
(0.89448966 0 1.4111569e-05)
(0.89419843 0 1.4106119e-05)
(0.89390724 3.3091651e-21 1.4100666e-05)
(0.8936161 0 1.4095217e-05)
(0.89332501 0 1.4089775e-05)
(0.89303395 3.1794957e-21 1.4084323e-05)
(0.89274295 0 1.4078881e-05)
(0.89245198 0 1.4073433e-05)
(0.89216106 -3.0499525e-21 1.4067994e-05)
(0.89187019 3.0067996e-21 1.4062547e-05)
(0.89157935 0 1.4057105e-05)
(0.89128857 0 1.4051662e-05)
(0.89099782 0 1.4046229e-05)
(0.89070712 0 1.4040787e-05)
(0.89041647 0 1.403535e-05)
(0.89012586 0 1.4029917e-05)
(0.88983529 0 1.4024483e-05)
(0.88954477 0 1.4019046e-05)
(0.88925429 2.6190541e-21 1.4013617e-05)
(0.88896385 -2.5760414e-21 1.4008189e-05)
(0.88867346 0 1.4002754e-05)
(0.88838312 0 1.3997321e-05)
(0.88809282 2.4470877e-21 1.3991895e-05)
(0.88780256 0 1.3986469e-05)
(0.88751234 0 1.3981038e-05)
(0.88722217 2.3182604e-21 1.3975613e-05)
(0.88693205 0 1.3970196e-05)
(0.88664197 0 1.3964772e-05)
(0.88635193 0 1.3959349e-05)
(0.88606193 0 1.3953933e-05)
(0.88577198 -2.1038293e-21 1.3948519e-05)
(0.88548208 2.0609852e-21 1.3943098e-05)
(0.88519222 0 1.3937678e-05)
(0.8849024 0 1.3932266e-05)
(0.88461263 0 1.3926851e-05)
(0.8843229 0 1.3921434e-05)
(0.88403321 0 1.3916023e-05)
(0.88374357 0 1.3910615e-05)
(0.88345397 1.7614705e-21 1.39052e-05)
(0.88316442 0 1.3899793e-05)
(0.88287491 0 1.3894387e-05)
(0.88258545 0 1.3888984e-05)
(0.88229602 0 1.3883574e-05)
(0.88200665 0 1.3878173e-05)
(0.88171731 1.5052922e-21 1.3872766e-05)
(0.88142803 0 1.3867368e-05)
(0.88113878 0 1.3861963e-05)
(0.88084958 1.3773931e-21 1.385656e-05)
(0.88056042 0 1.3851167e-05)
(0.88027131 0 1.3845763e-05)
(0.87998224 0 1.3840375e-05)
(0.87969322 1.207058e-21 1.3834968e-05)
(0.87940424 -1.1645094e-21 1.3829594e-05)
(0.8791153 0 1.3824175e-05)
(0.87882641 0 1.3818819e-05)
(0.87853756 0 1.3813368e-05)
(0.87824876 0 1.3808079e-05)
(0.87795999 9.5197801e-22 1.3802535e-05)
(0.87767129 0 1.3797373e-05)
(0.87738259 0 1.3791643e-05)
(0.877094 0 1.3786794e-05)
(0.87680536 0 1.3780577e-05)
(0.8765169 0 1.3776474e-05)
(0.87622828 -6.9740528e-22 1.3769125e-05)
(0.87594001 6.5502607e-22 1.3766773e-05)
(0.87565132 0 1.3756713e-05)
(0.87536339 0 1.3758548e-05)
(0.8750744 0 1.3742107e-05)
(0.87478715 0 1.3753893e-05)
(0.87449734 0 1.3722492e-05)
(0.87421156 0 1.3758405e-05)
(0.87391964 0 1.369276e-05)
(0.8736372 0 1.3789122e-05)
(0.87334 0 1.3648164e-05)
(0.87306503 0 1.3904975e-05)
(0.8727543 0 1.3598563e-05)
(0.87249609 0 1.4302732e-05)
(0.87214938 1.0534392e-22 1.346798e-05)
(0.87193596 0 1.53374e-05)
(0.87149456 0 1.0835306e-05)
(1.3812059 -3.43534e-20 0.029571453)
(1.2093878 0 0.024417618)
(1.0596061 -1.703035e-20 0.016286013)
(0.99253929 0 0.0078947626)
(0.95533431 0 0.0038512218)
(0.94125305 0 0.0016286967)
(0.93384978 0 0.00072775226)
(0.93151932 4.9860111e-20 0.00029484469)
(0.92998092 3.3079804e-20 0.00014690193)
(0.92953804 0 7.4383629e-05)
(0.92901118 1.6378264e-20 5.7553031e-05)
(0.92876081 1.629737e-20 4.5969733e-05)
(0.92840779 -3.2433494e-20 4.6028979e-05)
(0.9281437 0 4.3829299e-05)
(0.9278281 1.6055349e-20 4.4732638e-05)
(0.92754654 0 4.4089646e-05)
(0.9272428 1.5894061e-20 4.4528811e-05)
(0.92695306 0 4.4264986e-05)
(0.92665412 -3.1465754e-20 4.4435715e-05)
(0.92636105 0 4.4312731e-05)
(0.9260642 0 4.4371356e-05)
(0.92576983 0 4.4309054e-05)
(0.92547393 0 4.4322931e-05)
(0.92517908 0 4.4286955e-05)
(0.92488363 0 4.428278e-05)
(0.92458864 -3.0339027e-20 4.425799e-05)
(0.92429342 -1.5089132e-20 4.4246445e-05)
(0.92399842 0 4.4226362e-05)
(0.92370335 4.4785326e-20 4.4211771e-05)
(0.9234084 0 4.4193636e-05)
(0.92311345 0 4.4177792e-05)
(0.92281857 0 4.41605e-05)
(0.92252371 0 4.4144133e-05)
(0.92222891 0 4.4127167e-05)
(0.92193415 0 4.4110612e-05)
(0.92163944 4.3100396e-20 4.4093796e-05)
(0.92134477 0 4.4077134e-05)
(0.92105014 0 4.4060392e-05)
(0.92075556 0 4.404372e-05)
(0.92046103 0 4.4026984e-05)
(0.92016653 0 4.4010282e-05)
(0.91987208 -1.3886348e-20 4.3993585e-05)
(0.91957768 2.7612717e-20 4.3976898e-05)
(0.91928332 0 4.3960188e-05)
(0.918989 -1.3646454e-20 4.3943503e-05)
(0.91869473 2.7133077e-20 4.3926834e-05)
(0.9184005 0 4.3910153e-05)
(0.91810632 0 4.3893468e-05)
(0.91781218 -1.332694e-20 4.3876807e-05)
(0.91751809 2.6494244e-20 4.3860151e-05)
(0.91722403 0 4.3843476e-05)
(0.91693003 1.3087562e-20 4.3826802e-05)
(0.91663606 0 4.3810154e-05)
(0.91634215 0 4.3793495e-05)
(0.91604827 -1.2848406e-20 4.3776832e-05)
(0.91575444 0 4.3760183e-05)
(0.91546066 0 4.374355e-05)
(0.91516691 -1.2609471e-20 4.3726887e-05)
(0.91487322 0 4.3710257e-05)
(0.91457956 0 4.3693621e-05)
(0.91428595 0 4.3677003e-05)
(0.91399239 -1.2291235e-20 4.3660357e-05)
(0.91369887 0 4.3643742e-05)
(0.91340539 0 4.3627107e-05)
(0.91311196 0 4.3610505e-05)
(0.91281857 0 4.3593869e-05)
(0.91252523 0 4.3577256e-05)
(0.91223192 0 4.3560655e-05)
(0.91193867 0 4.3544044e-05)
(0.91164546 2.3311892e-20 4.3527444e-05)
(0.91135229 0 4.3510846e-05)
(0.91105917 1.149737e-20 4.3494257e-05)
(0.91076609 2.2836238e-20 4.3477668e-05)
(0.91047305 -1.1338892e-20 4.3461066e-05)
(0.91018006 0 4.3444487e-05)
(0.90988711 -3.3541541e-20 4.3427917e-05)
(0.90959421 0 4.3411318e-05)
(0.90930135 0 4.3394736e-05)
(0.90900854 1.0943131e-20 4.3378187e-05)
(0.90871577 2.1728104e-20 4.3361604e-05)
(0.90842304 1.0784998e-20 4.3345042e-05)
(0.90813036 0 4.332847e-05)
(0.90783772 -3.1880894e-20 4.3311938e-05)
(0.90754512 0 4.3295349e-05)
(0.90725257 0 4.3278799e-05)
(0.90696007 0 4.3262254e-05)
(0.90666761 -3.0933581e-20 4.3245727e-05)
(0.90637519 0 4.3229176e-05)
(0.90608282 0 4.3212631e-05)
(0.90579049 -3.0223874e-20 4.3196128e-05)
(0.9054982 0 4.3179568e-05)
(0.90520596 0 4.316305e-05)
(0.90491376 1.9676556e-20 4.3146524e-05)
(0.90462161 0 4.3130014e-05)
(0.9043295 0 4.3113478e-05)
(0.90403743 0 4.3096971e-05)
(0.90374541 -9.5234943e-21 4.308046e-05)
(0.90345344 9.4448603e-21 4.3063969e-05)
(0.9031615 0 4.3047442e-05)
(0.90286961 1.8575333e-20 4.3030954e-05)
(0.90257777 0 4.301446e-05)
(0.90228597 0 4.2997955e-05)
(0.90199421 0 4.2981465e-05)
(0.9017025 0 4.2964978e-05)
(0.90141083 8.8951136e-21 4.2948498e-05)
(0.90111921 0 4.2932013e-05)
(0.90082763 -8.7382654e-21 4.2915536e-05)
(0.90053609 0 4.2899062e-05)
(0.9002446 8.5815167e-21 4.2882602e-05)
(0.89995315 0 4.2866131e-05)
(0.89966175 0 4.2849655e-05)
(0.89937038 0 4.2833218e-05)
(0.89907907 1.6536631e-20 4.2816744e-05)
(0.8987878 8.1900771e-21 4.2800291e-05)
(0.89849657 0 4.2783834e-05)
(0.89820538 8.0336745e-21 4.2767405e-05)
(0.89791424 0 4.2750951e-05)
(0.89762315 0 4.2734512e-05)
(0.8973321 0 4.2718065e-05)
(0.89704109 0 4.2701661e-05)
(0.89675012 0 4.2685199e-05)
(0.89645921 0 4.266878e-05)
(0.89616833 -1.4974091e-20 4.2652366e-05)
(0.8958775 0 4.2635929e-05)
(0.89558671 0 4.2619509e-05)
(0.89529597 0 4.2603094e-05)
(0.89500527 0 4.2586719e-05)
(0.89471461 0 4.2570286e-05)
(0.894424 0 4.2553893e-05)
(0.89413343 -6.9416303e-21 4.2537491e-05)
(0.89384291 6.8638132e-21 4.2521109e-05)
(0.89355243 0 4.2504693e-05)
(0.89326199 0 4.248831e-05)
(0.8929716 -1.326102e-20 4.2471946e-05)
(0.89268125 0 4.2455551e-05)
(0.89239095 1.2950197e-20 4.2439165e-05)
(0.89210069 1.2794861e-20 4.2422802e-05)
(0.89181047 6.3197867e-21 4.2406427e-05)
(0.8915203 0 4.2390051e-05)
(0.89123017 -6.1645736e-21 4.2373685e-05)
(0.89094009 0 4.2357319e-05)
(0.89065005 0 4.2340966e-05)
(0.89036005 5.9319409e-21 4.2324602e-05)
(0.8900701 0 4.230825e-05)
(0.88978019 0 4.2291921e-05)
(0.88949033 5.6995313e-21 4.2275558e-05)
(0.8892005 -1.1244222e-20 4.2259229e-05)
(0.88891073 0 4.2242878e-05)
(0.888621 5.4673448e-21 4.2226559e-05)
(0.88833131 -5.3899992e-21 4.2210212e-05)
(0.88804166 0 4.2193883e-05)
(0.88775206 0 4.2177548e-05)
(0.88746251 0 4.2161245e-05)
(0.88717299 0 4.2144914e-05)
(0.88688352 0 4.2128598e-05)
(0.8865941 0 4.2112296e-05)
(0.88630472 0 4.209599e-05)
(0.88601538 0 4.2079673e-05)
(0.88572609 4.6950068e-21 4.2063381e-05)
(0.88543684 1.3853728e-20 4.2047092e-05)
(0.88514763 0 4.2030782e-05)
(0.88485847 0 4.2014478e-05)
(0.88456935 4.3867676e-21 4.1998197e-05)
(0.88428028 -8.6195396e-21 4.1981914e-05)
(0.88399125 0 4.1965616e-05)
(0.88370227 4.1558495e-21 4.1949338e-05)
(0.88341332 -8.1578528e-21 4.193308e-05)
(0.88312443 0 4.1916806e-05)
(0.88283557 0 4.1900531e-05)
(0.88254676 0 4.1884278e-05)
(0.882258 1.1314451e-20 4.1868031e-05)
(0.88196927 3.6946854e-21 4.1851764e-05)
(0.8816806 0 4.18355e-05)
(0.88139196 0 4.181926e-05)
(0.88110337 0 4.180301e-05)
(0.88081482 6.7754813e-21 4.1786755e-05)
(0.88052632 0 4.1770515e-05)
(0.88023786 0 4.175429e-05)
(0.87994945 3.1577939e-21 4.1738036e-05)
(0.87966107 0 4.1721814e-05)
(0.87937275 0 4.1705588e-05)
(0.87908446 0 4.1689377e-05)
(0.87879622 0 4.1673141e-05)
(0.87850803 -5.550095e-21 4.1656934e-05)
(0.87821988 2.6985732e-21 4.1640708e-05)
(0.87793177 0 4.1624512e-05)
(0.8776437 0 4.1608289e-05)
(0.87735568 -2.4692993e-21 4.1592078e-05)
(0.87706771 0 4.1575894e-05)
(0.87677977 0 4.1559677e-05)
(0.87649189 -4.4805004e-21 4.1543507e-05)
(0.87620404 2.1639506e-21 4.1527285e-05)
(0.87591624 -2.0876757e-21 4.1511152e-05)
(0.87562848 0 4.1494898e-05)
(0.87534077 0 4.1478817e-05)
(0.8750531 0 4.1462472e-05)
(0.87476548 -3.5656518e-21 4.1446579e-05)
(0.87447789 1.706676e-21 4.1429973e-05)
(0.87419036 0 4.1414437e-05)
(0.87390285 0 4.1397314e-05)
(0.87361543 0 4.1382651e-05)
(0.87332797 0 4.1364168e-05)
(0.87304068 0 4.1351588e-05)
(0.87275325 3.7509008e-21 4.1329943e-05)
(0.87246615 1.1743257e-21 4.1322258e-05)
(0.87217864 0 4.1293035e-05)
(0.87189189 0 4.1297054e-05)
(0.87160408 -1.8930984e-21 4.1250003e-05)
(0.871318 0 4.1281852e-05)
(0.87102937 0 4.1193033e-05)
(0.87074476 -1.438005e-21 4.1292467e-05)
(0.87045403 0 4.1108285e-05)
(0.87017275 0 4.1377669e-05)
(0.86987675 0 4.0985001e-05)
(0.86960292 0 4.170842e-05)
(0.86929343 0 4.0861159e-05)
(0.86903634 0 4.2859202e-05)
(0.86869102 -1.888644e-22 4.0532585e-05)
(0.86847858 0 4.5842118e-05)
(0.86803908 0 3.2795902e-05)
(1.3686118 3.43534e-20 0.049186447)
(1.1981298 0 0.040609198)
(1.0503736 3.4061281e-20 0.026993614)
(0.98424064 0 0.013105129)
(0.94757288 0 0.0063823528)
(0.93369198 3.3561252e-20 0.0027053681)
(0.92638255 0 0.0012061639)
(0.92408365 9.3531102e-27 0.00049088005)
(0.92256046 -3.3079804e-20 0.00024357227)
(0.9221228 3.2917561e-20 0.00012433591)
(0.92159992 -3.2756529e-20 9.5655648e-05)
(0.92135187 -6.518948e-20 7.6882874e-05)
(0.92100149 6.4866988e-20 7.6674808e-05)
(0.92073966 0 7.3212843e-05)
(0.92042654 -3.2110699e-20 7.4586489e-05)
(0.92014734 3.1949343e-20 7.3598319e-05)
(0.91984605 -3.1788123e-20 7.4275378e-05)
(0.9195587 0 7.3870398e-05)
(0.9192622 6.2931508e-20 7.4132239e-05)
(0.91897154 0 7.3941727e-05)
(0.91867712 -3.1143586e-20 7.4030034e-05)
(0.91838517 0 7.3932203e-05)
(0.91809169 -3.0821615e-20 7.3951425e-05)
(0.91779926 0 7.3893953e-05)
(0.91750623 -3.0499842e-20 7.3885361e-05)
(0.91721365 6.0678055e-20 7.3845075e-05)
(0.91692086 3.0178264e-20 7.382514e-05)
(0.91662827 0 7.3792087e-05)
(0.91633563 -2.9856884e-20 7.3767475e-05)
(0.91604309 0 7.3737413e-05)
(0.91575056 -2.95357e-20 7.3710873e-05)
(0.9154581 2.9375181e-20 7.3682117e-05)
(0.91516566 -2.9214712e-20 7.3654769e-05)
(0.91487328 -2.9054291e-20 7.3626509e-05)
(0.91458093 0 7.3598883e-05)
(0.91428864 -2.8733597e-20 7.357085e-05)
(0.91399638 0 7.354306e-05)
(0.91370417 0 7.3515143e-05)
(0.913412 0 7.3487335e-05)
(0.91311988 0 7.3459433e-05)
(0.9128278 0 7.3431575e-05)
(0.91253577 2.7772696e-20 7.3403731e-05)
(0.91224378 -2.7612717e-20 7.3375907e-05)
(0.91195183 0 7.3348038e-05)
(0.91165993 -4.8523169e-28 7.3320213e-05)
(0.91136807 -2.7133076e-20 7.329242e-05)
(0.91107625 -2.6973296e-20 7.3264597e-05)
(0.91078448 0 7.3236773e-05)
(0.91049275 2.6653879e-20 7.3208993e-05)
(0.91020107 -2.6494244e-20 7.3181213e-05)
(0.90990943 -2.633466e-20 7.3153406e-05)
(0.90961783 -5.2350247e-20 7.3125603e-05)
(0.90932628 -2.6015638e-20 7.3097837e-05)
(0.90903477 0 7.3070059e-05)
(0.9087433 -4.8430967e-28 7.3042268e-05)
(0.90845188 -2.5537472e-20 7.3014502e-05)
(0.90816051 0 7.298677e-05)
(0.90786917 -4.8401122e-28 7.2958976e-05)
(0.90757788 0 7.2931246e-05)
(0.90728664 2.4900608e-20 7.2903505e-05)
(0.90699543 0 7.2875791e-05)
(0.90670428 -4.8365371e-28 7.2848028e-05)
(0.90641316 -2.4423476e-20 7.2820328e-05)
(0.90612209 -2.4264531e-20 7.279258e-05)
(0.90583106 0 7.2764897e-05)
(0.90554008 2.3946788e-20 7.2737156e-05)
(0.90524914 0 7.270945e-05)
(0.90495824 0 7.2681768e-05)
(0.90466739 0 7.2654063e-05)
(0.90437658 -2.3311892e-20 7.2626381e-05)
(0.90408582 0 7.2598706e-05)
(0.9037951 -2.299474e-20 7.2571037e-05)
(0.90350442 -2.2836238e-20 7.2543373e-05)
(0.90321379 0 7.2515689e-05)
(0.9029232 0 7.248804e-05)
(0.90263265 2.2361027e-20 7.2460406e-05)
(0.90234215 0 7.2432728e-05)
(0.90205169 -2.2044468e-20 7.2405072e-05)
(0.90176128 -2.1886261e-20 7.2377475e-05)
(0.90147091 -2.1728104e-20 7.2349822e-05)
(0.90118058 -2.1569996e-20 7.2322202e-05)
(0.9008903 0 7.2294567e-05)
(0.90060006 2.1253929e-20 7.2266996e-05)
(0.90030986 0 7.2239329e-05)
(0.90001971 -2.093806e-20 7.2211736e-05)
(0.8997296 -2.07802e-20 7.218414e-05)
(0.89943954 2.0622387e-20 7.2156578e-05)
(0.89914952 0 7.2128983e-05)
(0.89885954 -2.0306913e-20 7.2101386e-05)
(0.89856961 2.0149249e-20 7.2073867e-05)
(0.89827972 1.9991636e-20 7.2046251e-05)
(0.89798987 0 7.2018705e-05)
(0.89770007 -3.9353112e-20 7.1991144e-05)
(0.89741031 0 7.1963617e-05)
(0.8971206 -1.9361674e-20 7.1936035e-05)
(0.89683093 0 7.1908509e-05)
(0.8965413 1.9046989e-20 7.1880976e-05)
(0.89625172 -1.888972e-20 7.1853473e-05)
(0.89596218 1.8732502e-20 7.1825914e-05)
(0.89567268 -1.8575332e-20 7.1798415e-05)
(0.89538323 0 7.1770908e-05)
(0.89509382 0 7.1743389e-05)
(0.89480446 0 7.1715885e-05)
(0.89451514 -1.794715e-20 7.168839e-05)
(0.89422586 -1.7790227e-20 7.1660911e-05)
(0.89393662 -1.7633355e-20 7.1633417e-05)
(0.89364743 0 7.1605939e-05)
(0.89335829 1.7319758e-20 7.157847e-05)
(0.89306918 -1.7163033e-20 7.1551015e-05)
(0.89278013 -1.7006359e-20 7.152355e-05)
(0.89249111 0 7.1496075e-05)
(0.89220214 0 7.1468661e-05)
(0.89191321 -1.6536631e-20 7.1441191e-05)
(0.89162433 -1.6380154e-20 7.1413751e-05)
(0.89133549 0 7.1386305e-05)
(0.89104669 4.7853071e-28 7.1358914e-05)
(0.89075793 0 7.1331467e-05)
(0.89046922 0 7.1304056e-05)
(0.89018056 0 7.1276629e-05)
(0.88989194 0 7.1249271e-05)
(0.88960336 0 7.1221818e-05)
(0.88931482 1.5130123e-20 7.1194441e-05)
(0.88902633 1.4974091e-20 7.1167064e-05)
(0.88873788 -1.481811e-20 7.1139652e-05)
(0.88844948 -1.4662178e-20 7.1112274e-05)
(0.88816112 -1.4506295e-20 7.1084895e-05)
(0.8878728 0 7.1057588e-05)
(0.88758453 0 7.1030186e-05)
(0.8872963 0 7.1002847e-05)
(0.88700811 0 7.0975495e-05)
(0.88671997 -1.3727626e-20 7.0948174e-05)
(0.88643187 0 7.0920797e-05)
(0.88614382 0 7.0893481e-05)
(0.8858558 1.326102e-20 7.0866185e-05)
(0.88556784 -1.3105585e-20 7.0838846e-05)
(0.88527991 -2.5900395e-20 7.0811522e-05)
(0.88499203 -2.5589722e-20 7.0784232e-05)
(0.88470419 -1.2639573e-20 7.0756922e-05)
(0.8844164 1.2484336e-20 7.0729617e-05)
(0.88412865 0 7.070232e-05)
(0.88384094 -1.217401e-20 7.0675028e-05)
(0.88355328 1.2018921e-20 7.064776e-05)
(0.88326566 -2.3727764e-20 7.0620468e-05)
(0.88297809 0 7.0593202e-05)
(0.88269056 0 7.0565967e-05)
(0.88240307 -1.1399062e-20 7.0538677e-05)
(0.88211562 2.2488444e-20 7.0511452e-05)
(0.88182822 0 7.0484178e-05)
(0.88154086 0 7.0456966e-05)
(0.88125355 0 7.0429708e-05)
(0.88096628 0 7.0402473e-05)
(0.88067905 -1.0470765e-20 7.0375231e-05)
(0.88039187 1.0316223e-20 7.0348049e-05)
(0.88010473 -1.0161731e-20 7.0320808e-05)
(0.87981763 0 7.02936e-05)
(0.87953058 9.8528945e-21 7.0266417e-05)
(0.87924357 -9.6985513e-21 7.0239221e-05)
(0.87895661 9.5442574e-21 7.0212013e-05)
(0.87866969 -1.8780027e-20 7.0184841e-05)
(0.87838281 -9.2358188e-21 7.0157675e-05)
(0.87809597 0 7.013048e-05)
(0.87780918 0 7.0103287e-05)
(0.87752243 -8.7735349e-21 7.0076135e-05)
(0.87723573 1.723908e-20 7.0048985e-05)
(0.87694907 0 7.0021801e-05)
(0.87666245 -1.6623398e-20 6.9994654e-05)
(0.87637588 1.6315706e-20 6.9967546e-05)
(0.87608935 -8.0040573e-21 6.9940402e-05)
(0.87580286 0 6.9913261e-05)
(0.87551642 7.6966146e-21 6.9886161e-05)
(0.87523002 -7.5429673e-21 6.9859062e-05)
(0.87494366 -1.4778742e-20 6.9831935e-05)
(0.87465735 7.2358238e-21 6.9804814e-05)
(0.87437108 -7.0823268e-21 6.9777729e-05)
(0.87408486 6.9288792e-21 6.9750632e-05)
(0.87379868 -1.3550963e-20 6.9723521e-05)
(0.87351254 -6.622134e-21 6.9696437e-05)
(0.87322644 6.468836e-21 6.9669384e-05)
(0.87294039 -6.3155876e-21 6.9642273e-05)
(0.87265439 0 6.9615222e-05)
(0.87236842 0 6.9588164e-05)
(0.8720825 0 6.9561128e-05)
(0.87179662 -5.7030943e-21 6.9534048e-05)
(0.87151079 1.110019e-20 6.9507028e-05)
(0.871225 -1.0794293e-20 6.9479961e-05)
(0.87093925 0 6.9452954e-05)
(0.87065355 5.0913985e-21 6.9425901e-05)
(0.87036789 0 6.9398865e-05)
(0.87008227 4.7858499e-21 6.9371877e-05)
(0.8697967 0 6.9344831e-05)
(0.86951117 4.4805004e-21 6.9317862e-05)
(0.86922569 -4.3279009e-21 6.9290818e-05)
(0.86894025 4.1753512e-21 6.9263903e-05)
(0.86865484 0 6.9236805e-05)
(0.86836949 3.870402e-21 6.9209977e-05)
(0.86808418 0 6.9182738e-05)
(0.86779891 3.5656517e-21 6.9156199e-05)
(0.86751368 -3.4133518e-21 6.912856e-05)
(0.86722851 -3.2611023e-21 6.910257e-05)
(0.86694335 0 6.9074135e-05)
(0.86665829 0 6.90495e-05)
(0.86637319 0 6.9018959e-05)
(0.86608826 2.6526018e-21 6.8997544e-05)
(0.86580318 -2.5006006e-21 6.8962118e-05)
(0.86551844 -4.6973028e-21 6.8948264e-05)
(0.86523328 2.1967503e-21 6.8901129e-05)
(0.86494888 -2.0449017e-21 6.8905374e-05)
(0.86466343 1.8930984e-21 6.8830683e-05)
(0.8643797 0 6.8877992e-05)
(0.86409342 -1.5896463e-21 6.8738801e-05)
(0.86381116 1.438005e-21 6.8890849e-05)
(0.86352279 1.2863909e-21 6.8604823e-05)
(0.86324384 0 6.9021301e-05)
(0.86295023 -9.8332859e-22 6.841637e-05)
(0.86267871 0 6.9544158e-05)
(0.86237169 -6.8044983e-22 6.8249848e-05)
(0.86211684 0 7.1388251e-05)
(0.86177428 3.7773104e-22 6.7803392e-05)
(0.86156383 0 7.6148014e-05)
(0.8611281 7.5444383e-23 5.5191712e-05)
(1.349752 0 0.068751868)
(1.1812809 0 0.056593714)
(1.0365484 6.8118911e-20 0.037519078)
(0.97180711 0 0.018224416)
(0.93593591 0 0.0088681751)
(0.92235267 -3.3561252e-20 0.0037641816)
(0.91518233 6.6806384e-20 0.0016771637)
(0.91293038 -9.9720284e-20 0.00068443865)
(0.9114298 6.6159616e-20 0.00033936979)
(0.91099995 -3.2917561e-20 0.00017414302)
(0.91048303 6.551306e-20 0.00013377663)
(0.91023846 3.259474e-20 0.00010791092)
(0.90989204 -3.2433494e-20 0.00010743187)
(0.9096336 0 0.00010272234)
(0.90932421 -6.4221399e-20 0.00010455723)
(0.90904854 -3.1949343e-20 0.00010322796)
(0.90875092 -6.3576247e-20 0.00010413884)
(0.90846717 0 0.00010359445)
(0.90817431 -3.1465754e-20 0.00010394581)
(0.90788727 6.2609277e-20 0.00010368856)
(0.9075965 3.1143586e-20 0.00010380591)
(0.90730817 0 0.00010367289)
(0.90701833 3.0821615e-20 0.00010369718)
(0.90672953 0 0.00010361835)
(0.90644012 3.0499842e-20 0.00010360521)
(0.90615118 -9.1017084e-20 0.00010354947)
(0.90586201 6.0356531e-20 0.00010352109)
(0.90557306 6.0035099e-20 0.00010347507)
(0.90528404 5.971377e-20 0.00010344039)
(0.90499513 0 0.00010339839)
(0.90470623 2.95357e-20 0.00010336112)
(0.90441739 -2.9375181e-20 0.00010332088)
(0.90412858 -2.9214713e-20 0.00010328253)
(0.90383982 2.9054291e-20 0.00010324296)
(0.9035511 -5.778784e-20 0.00010320423)
(0.90326243 0 0.00010316496)
(0.9029738 5.714665e-20 0.00010312602)
(0.90268521 0 0.00010308691)
(0.90239667 0 0.00010304794)
(0.90210817 0 0.00010300884)
(0.90181971 -5.5865447e-20 0.00010296981)
(0.9015313 5.5545394e-20 0.0001029308)
(0.90124293 5.5225436e-20 0.00010289181)
(0.9009546 0 0.00010285276)
(0.90066632 8.1878727e-20 0.00010281377)
(0.90037807 5.4266155e-20 0.00010277483)
(0.90008988 2.6973296e-20 0.00010273584)
(0.89980172 0 0.00010269686)
(0.89951361 0 0.00010265793)
(0.89922554 5.2988491e-20 0.00010261901)
(0.89893752 2.633466e-20 0.00010258005)
(0.89864954 2.6175124e-20 0.00010254109)
(0.8983616 2.6015637e-20 0.00010250219)
(0.89807371 5.17124e-20 0.00010246326)
(0.89778585 2.5696812e-20 0.00010242433)
(0.89749805 2.5537472e-20 0.00010238542)
(0.89721028 5.0756365e-20 0.00010234656)
(0.89692256 7.5656826e-20 0.00010230762)
(0.89663488 5.01195e-20 0.00010226876)
(0.89634725 -2.4900608e-20 0.00010222989)
(0.89605966 4.9483029e-20 0.00010219106)
(0.89577211 2.4582471e-20 0.00010215216)
(0.8954846 2.4423476e-20 0.00010211335)
(0.89519714 2.4264531e-20 0.00010207446)
(0.89490972 0 0.00010203568)
(0.89462235 -2.3946788e-20 0.00010199681)
(0.89433501 0 0.00010195798)
(0.89404772 4.7258483e-20 0.0001019192)
(0.89376048 0 0.00010188038)
(0.89347328 4.6623785e-20 0.00010184159)
(0.89318612 0 0.00010180281)
(0.892899 -4.5989482e-20 0.00010176404)
(0.89261193 4.5672479e-20 0.00010172528)
(0.8923249 0 0.00010168649)
(0.89203791 0 0.00010164775)
(0.89175097 -4.4722057e-20 0.00010160903)
(0.89146407 -4.4405448e-20 0.00010157025)
(0.89117721 2.2044468e-20 0.00010153149)
(0.8908904 -4.3772524e-20 0.00010149283)
(0.89060363 4.3456211e-20 0.00010145408)
(0.8903169 0 0.00010141538)
(0.89003021 4.282388e-20 0.00010137666)
(0.88974357 -4.2507861e-20 0.00010133802)
(0.88945698 0 0.00010129926)
(0.88917042 2.093806e-20 0.00010126059)
(0.88888391 6.23406e-20 0.00010122193)
(0.88859744 -4.1244777e-20 0.00010118331)
(0.88831102 0 0.00010114464)
(0.88802464 6.0920741e-20 0.00010110597)
(0.8877383 -4.02985e-20 0.00010106741)
(0.887452 -1.9991636e-20 0.00010102872)
(0.88716575 0 0.00010099012)
(0.88687954 5.902967e-20 0.0001009515)
(0.88659337 0 0.00010091293)
(0.88630725 5.8085023e-20 0.00010087428)
(0.88602117 0 0.00010083572)
(0.88573514 -1.9046989e-20 0.00010079713)
(0.88544914 0 0.0001007586)
(0.88516319 -1.8732502e-20 0.00010071998)
(0.88487729 3.7150667e-20 0.00010068145)
(0.88459142 -3.6836427e-20 0.00010064291)
(0.8843056 3.6522286e-20 0.00010060435)
(0.88401982 0 0.00010056581)
(0.88373409 1.794715e-20 0.00010052729)
(0.8834484 0 0.00010048879)
(0.88316275 5.2900067e-20 0.00010045026)
(0.88287715 0 0.00010041175)
(0.88259158 -1.7319758e-20 0.00010037327)
(0.88230607 -3.4326068e-20 0.0001003348)
(0.88202059 1.7006359e-20 0.00010029631)
(0.88173516 0 0.00010025781)
(0.88144977 0 0.00010021941)
(0.88116442 0 0.00010018091)
(0.88087912 0 0.00010014246)
(0.88059386 3.2447456e-20 0.000100104)
(0.88030864 -4.8202049e-20 0.00010006562)
(0.88002347 0 0.00010002716)
(0.87973834 0 9.9988757e-05)
(0.87945325 0 9.9950329e-05)
(0.87916821 0 9.9911992e-05)
(0.87888321 0 9.9873523e-05)
(0.87859825 1.5130124e-20 9.9835164e-05)
(0.87831333 -2.9948184e-20 9.9796803e-05)
(0.87802846 1.481811e-20 9.9758392e-05)
(0.87774363 1.4662178e-20 9.9720031e-05)
(0.87745885 1.4506295e-20 9.968167e-05)
(0.8771741 -2.8700926e-20 9.9643405e-05)
(0.87688941 2.838936e-20 9.9605008e-05)
(0.87660475 0 9.9566701e-05)
(0.87632014 0 9.9528375e-05)
(0.87603557 -2.7455254e-20 9.9490093e-05)
(0.87575104 0 9.9451731e-05)
(0.87546655 0 9.941346e-05)
(0.87518211 -2.6522042e-20 9.9375208e-05)
(0.87489772 3.9316755e-20 9.9336901e-05)
(0.87461336 1.2950198e-20 9.9298614e-05)
(0.87432905 3.8384585e-20 9.9260376e-05)
(0.87404478 -2.5279149e-20 9.9222109e-05)
(0.87376055 1.2484338e-20 9.9183849e-05)
(0.87347637 0 9.91456e-05)
(0.87319223 1.217401e-20 9.9107361e-05)
(0.87290814 -3.6056764e-20 9.9069149e-05)
(0.87262408 1.1863882e-20 9.9030908e-05)
(0.87234007 0 9.8992701e-05)
(0.8720561 -2.3107906e-20 9.8954542e-05)
(0.87177218 0 9.8916301e-05)
(0.8714883 -3.3732667e-20 9.8878154e-05)
(0.87120446 0 9.8839939e-05)
(0.87092067 0 9.8801807e-05)
(0.87063691 0 9.8763611e-05)
(0.8703532 -2.1250716e-20 9.8725451e-05)
(0.87006954 1.0470765e-20 9.8687277e-05)
(0.86978592 -3.094867e-20 9.8649192e-05)
(0.86950234 1.0161731e-20 9.861102e-05)
(0.8692188 0 9.8572899e-05)
(0.8689353 -2.9558685e-20 9.8534806e-05)
(0.86865185 9.6985512e-21 9.84967e-05)
(0.86836845 -2.8632773e-20 9.8458574e-05)
(0.86808508 9.3900136e-21 9.8420501e-05)
(0.86780176 1.847164e-20 9.8382435e-05)
(0.86751848 0 9.8344328e-05)
(0.86723524 1.7855162e-20 9.8306228e-05)
(0.86695205 0 9.8268179e-05)
(0.8666689 -2.5858621e-20 9.8230138e-05)
(0.8663858 0 9.8192045e-05)
(0.86610273 8.3116992e-21 9.8154007e-05)
(0.86581971 -2.4473561e-20 9.8116023e-05)
(0.86553673 8.0040573e-21 9.8077987e-05)
(0.8652538 1.5700623e-20 9.803996e-05)
(0.86497091 -7.6966146e-21 9.8001983e-05)
(0.86468806 1.5085937e-20 9.7964013e-05)
(0.86440525 7.389371e-21 9.7926003e-05)
(0.86412249 -2.1707473e-20 9.7887999e-05)
(0.86383977 7.0823267e-21 9.7850048e-05)
(0.86355709 -2.0786639e-20 9.7812077e-05)
(0.86327446 -6.7754831e-21 9.7774093e-05)
(0.86299187 6.622134e-21 9.7736138e-05)
(0.86270932 -1.9406509e-20 9.7698233e-05)
(0.86242681 0 9.7660241e-05)
(0.86214435 -1.2324781e-20 9.7622339e-05)
(0.86186193 0 9.7584423e-05)
(0.86157956 0 9.754654e-05)
(0.86129722 5.7030943e-21 9.7508597e-05)
(0.86101493 -1.6650288e-20 9.7470734e-05)
(0.86073269 5.3971466e-21 9.7432807e-05)
(0.86045048 -1.0488496e-20 9.7394965e-05)
(0.86016832 -5.0913985e-21 9.7357055e-05)
(0.8598862 0 9.7319173e-05)
(0.85960413 -1.4357551e-20 9.7281355e-05)