/*--------------------------------*- C++ -*----------------------------------*\
  =========                 |
  \\      /  F ield         | OpenFOAM: The Open Source CFD Toolbox
   \\    /   O peration     | Website:  https://openfoam.org
    \\  /    A nd           | Version:  6
     \\/     M anipulation  |
\*---------------------------------------------------------------------------*/
FoamFile
{
    version     2.0;
    format      ascii;
    class       volScalarField;
    location    "6520";
    object      p;
}
// * * * * * * * * * * * * * * * * * * * * * * * * * * * * * * * * * * * * * //

dimensions      [0 2 -2 0 0 0 0];

internalField   nonuniform List<scalar> 
40000
(
4101324.4
4008755
3961079.5
3907393.7
3871492.6
3840003.2
3817433.4
3799656
3786776.9
3777141.1
3770149.5
3764971.6
3761100.9
3758083.9
3755604.3
3753419.5
3751359.3
3749305
3747178.4
3744931.4
3742537.8
3739986.8
3737278.7
3734420.6
3731423.9
3728302.5
3725070.9
3721743.9
3718335.2
3714857.7
3711322.8
3707740.9
3704120.5
3700469.3
3696793.6
3693098.6
3689388.5
3685667.1
3681937
3678200.4
3674459.3
3670714.8
3666968.1
3663219.9
3659470.8
3655721.1
3651971.3
3648221.4
3644471.7
3640722.1
3636972.6
3633223.4
3629474.3
3625725.4
3621976.6
3618227.9
3614479.2
3610730.6
3606981.9
3603233.2
3599484.5
3595735.6
3591986.7
3588237.7
3584488.5
3580739.2
3576989.7
3573240.1
3569490.3
3565740.4
3561990.3
3558240
3554489.6
3550739
3546988.2
3543237.3
3539486.2
3535734.9
3531983.4
3528231.8
3524480
3520728
3516975.9
3513223.6
3509471.1
3505718.4
3501965.6
3498212.6
3494459.4
3490706.1
3486952.6
3483198.9
3479445.1
3475691
3471936.8
3468182.5
3464427.9
3460673.2
3456918.3
3453163.3
3449408.1
3445652.7
3441897.1
3438141.4
3434385.5
3430629.4
3426873.2
3423116.7
3419360.1
3415603.4
3411846.5
3408089.3
3404332.1
3400574.6
3396817
3393059.2
3389301.3
3385543.1
3381784.8
3378026.4
3374267.7
3370508.9
3366749.9
3362990.7
3359231.4
3355471.9
3351712.2
3347952.4
3344192.4
3340432.2
3336671.8
3332911.3
3329150.6
3325389.7
3321628.7
3317867.5
3314106.1
3310344.5
3306582.8
3302820.9
3299058.8
3295296.5
3291534.1
3287771.5
3284008.8
3280245.8
3276482.7
3272719.4
3268956
3265192.4
3261428.6
3257664.6
3253900.5
3250136.2
3246371.7
3242607
3238842.2
3235077.2
3231312
3227546.7
3223781.2
3220015.5
3216249.6
3212483.6
3208717.4
3204951
3201184.5
3197417.7
3193650.8
3189883.8
3186116.5
3182349.1
3178581.5
3174813.8
3171045.9
3167277.8
3163509.5
3159741.1
3155972.4
3152203.6
3148434.7
3144665.5
3140896.2
3137126.8
3133357.1
3129587.3
3125817.3
3122047.1
3118276.8
3114506.3
3110735.6
3106964.7
3103193.7
3099422.5
3095651.1
3091879.5
3088107.8
3084335.9
3080563.9
3076791.6
3073019.2
3069246.6
3065473.8
3061700.9
3057927.8
3054154.5
3050381.1
3046607.4
3042833.6
3039059.7
3035285.5
3031511.2
3027736.7
3023962
3020187.2
3016412.2
3012637
3008861.7
3005086.1
3001310.4
2997534.5
2993758.5
2989982.3
2986205.9
2982429.3
2978652.6
2974875.6
2971098.5
2967321.3
2963543.8
2959766.2
2955988.5
2952210.5
2948432.4
2944654.1
2940875.6
2937096.9
2933318.1
2929539.1
2925759.9
2921980.6
2918201.1
2914421.4
2910641.5
2906861.5
2903081.2
2899300.9
2895520.3
2891739.6
2887958.6
2884177.6
2880396.3
2876614.9
2872833.3
2869051.5
2865269.5
2861487.4
2857705.1
2853922.6
2850140
2846357.2
2842574.2
2838791
2835007.6
2831224.1
2827440.4
2823656.6
2819872.5
2816088.3
2812303.9
2808519.3
2804734.6
2800949.7
2797164.6
2793379.3
2789593.9
2785808.3
2782022.5
2778236.6
2774450.4
2770664.1
2766877.6
2763091
2759304.1
2755517.1
2751730
2747942.6
2744155.1
2740367.4
2736579.5
2732791.4
2729003.2
2725214.8
2721426.2
2717637.5
2713848.6
2710059.5
2706270.2
2702480.7
2698691.1
2694901.3
2691111.3
2687321.2
2683530.9
2679740.4
2675949.7
2672158.8
2668367.8
2664576.6
2660785.2
2656993.7
2653202
2649410.1
2645618
2641825.7
2638033.3
2634240.7
2630447.9
2626655
2622861.9
2619068.6
2615275.1
2611481.4
2607687.6
2603893.6
2600099.4
2596305.1
2592510.6
2588715.9
2584921
2581125.9
2577330.7
2573535.3
2569739.7
2565944
2562148
2558351.9
2554555.6
2550759.2
2546962.6
2543165.7
2539368.8
2535571.6
2531774.3
2527976.8
2524179.1
2520381.2
2516583.2
2512785
2508986.6
2505188
2501389.3
2497590.4
2493791.3
2489992
2486192.5
2482392.9
2478593.1
2474793.2
2470993
2467192.7
2463392.2
2459591.5
2455790.7
2451989.6
2448188.4
2444387.1
2440585.5
2436783.8
2432981.9
2429179.8
2425377.5
2421575.1
2417772.5
2413969.7
2410166.7
2406363.6
2402560.3
2398756.8
2394953.1
2391149.3
2387345.2
2383541
2379736.7
2375932.1
2372127.4
2368322.5
2364517.4
2360712.1
2356906.7
2353101.1
2349295.3
2345489.3
2341683.2
2337876.9
2334070.4
2330263.7
2326456.9
2322649.8
2318842.6
2315035.3
2311227.7
2307420
2303612.1
2299804
2295995.7
2292187.3
2288378.7
2284569.9
2280760.9
2276951.8
2273142.4
2269332.9
2265523.3
2261713.4
2257903.4
2254093.2
2250282.8
2246472.2
2242661.5
2238850.6
2235039.5
2231228.2
2227416.8
2223605.1
2219793.3
2215981.4
2212169.2
2208356.9
2204544.4
2200731.7
2196918.8
2193105.8
2189292.5
2185479.1
2181665.6
2177851.8
2174037.9
2170223.8
2166409.5
2162595
2158780.4
2154965.6
2151150.6
2147335.4
2143520.1
2139704.5
2135888.8
2132072.9
2128256.9
2124440.6
2120624.2
2116807.6
2112990.9
2109173.9
2105356.8
2101539.5
2097722
2093904.3
2090086.5
2086268.5
2082450.3
2078631.9
2074813.4
2070994.6
2067175.7
2063356.6
2059537.4
2055717.9
2051898.3
2048078.5
2044258.5
2040438.4
2036618
2032797.5
2028976.8
2025156
2021334.9
2017513.7
2013692.3
2009870.7
2006049
2002227
1998404.9
1994582.6
1990760.2
1986937.5
1983114.7
1979291.7
1975468.5
1971645.1
1967821.6
1963997.9
1960174
1956349.9
1952525.6
1948701.2
1944876.6
1941051.8
1937226.8
1933401.7
1929576.3
1925750.8
1921925.1
1918099.3
1914273.2
1910447
1906620.6
1902794
1898967.3
1895140.3
1891313.2
1887485.9
1883658.4
1879830.8
1876003
1872175
1868346.8
1864518.4
1860689.8
1856861.1
1853032.2
1849203.1
1845373.9
1841544.4
1837714.8
1833885
1830055
1826224.8
1822394.5
1818564
1814733.3
1810902.4
1807071.3
1803240.1
1799408.7
1795577.1
1791745.3
1787913.4
1784081.2
1780248.9
1776416.4
1772583.7
1768750.9
1764917.9
1761084.6
1757251.3
1753417.7
1749583.9
1745750
1741915.9
1738081.6
1734247.1
1730412.5
1726577.6
1722742.6
1718907.5
1715072.1
1711236.5
1707400.8
1703564.9
1699728.8
1695892.5
1692056.1
1688219.5
1684382.7
1680545.7
1676708.5
1672871.1
1669033.6
1665195.9
1661358
1657520
1653681.7
1649843.3
1646004.7
1642165.9
1638326.9
1634487.8
1630648.4
1626808.9
1622969.2
1619129.4
1615289.3
1611449.1
1607608.7
1603768.1
1599927.3
1596086.3
1592245.2
1588403.9
1584562.4
1580720.7
1576878.9
1573036.8
1569194.6
1565352.2
1561509.6
1557666.9
1553823.9
1549980.8
1546137.5
1542294
1538450.4
1534606.5
1530762.5
1526918.3
1523073.9
1519229.3
1515384.6
1511539.7
1507694.5
1503849.3
1500003.8
1496158.1
1492312.3
1488466.3
1484620.1
1480773.7
1476927.1
1473080.4
1469233.5
1465386.4
1461539.1
1457691.6
1453844
1449996.2
1446148.2
1442300
1438451.6
1434603
1430754.3
1426905.4
1423056.3
1419207
1415357.6
1411507.9
1407658.1
1403808.1
1399957.9
1396107.6
1392257
1388406.3
1384555.4
1380704.3
1376853
1373001.5
1369149.9
1365298.1
1361446.1
1357593.9
1353741.5
1349889
1346036.3
1342183.4
1338330.3
1334477
1330623.5
1326769.9
1322916.1
1319062.1
1315207.9
1311353.5
1307499
1303644.3
1299789.4
1295934.3
1292079
1288223.5
1284367.9
1280512.1
1276656.1
1272799.9
1268943.5
1265087
1261230.2
1257373.3
1253516.2
1249659
1245801.5
1241943.9
1238086
1234228
1230369.8
1226511.5
1222652.9
1218794.2
1214935.2
1211076.1
1207216.9
1203357.4
1199497.7
1195637.9
1191777.9
1187917.7
1184057.3
1180196.8
1176336
1172475.1
1168614
1164752.7
1160891.2
1157029.5
1153167.7
1149305.7
1145443.5
1141581.1
1137718.5
1133855.8
1129992.8
1126129.7
1122266.4
1118402.9
1114539.2
1110675.4
1106811.3
1102947.1
1099082.7
1095218.1
1091353.4
1087488.4
1083623.3
1079757.9
1075892.4
1072026.8
1068160.9
1064294.8
1060428.6
1056562.2
1052695.6
1048828.8
1044961.8
1041094.7
1037227.3
1033359.8
1029492.1
1025624.2
1021756.2
1017887.9
1014019.5
1010150.9
1006282.1
1002413.1
998543.9
994674.55
990805.01
986935.29
983065.38
979195.29
975325.02
971454.57
967583.93
963713.1
959842.09
955970.9
952099.53
948227.97
944356.23
940484.3
936612.19
932739.89
928867.41
924994.75
921121.9
917248.87
913375.66
909502.26
905628.67
901754.91
897880.96
894006.82
890132.5
886258
882383.31
878508.43
874633.38
870758.14
866882.71
863007.1
859131.31
855255.33
851379.17
847502.82
843626.29
839749.57
835872.67
831995.58
828118.31
824240.86
820363.22
816485.4
812607.39
808729.2
804850.82
800972.26
797093.51
793214.58
789335.46
785456.16
781576.68
777697.01
773817.15
769937.11
766056.89
762176.48
758295.88
754415.1
750534.14
746652.99
742771.65
738890.13
735008.43
731126.54
727244.47
723362.21
719479.76
715597.13
711714.32
707831.32
703948.13
700064.76
696181.21
692297.46
688413.54
684529.43
680645.13
676760.65
672875.98
668991.13
665106.09
661220.86
657335.46
653449.86
649564.08
645678.11
641791.96
637905.63
634019.1
630132.4
626245.5
622358.42
618471.16
614583.71
610696.07
606808.25
602920.24
599032.05
595143.67
591255.11
587366.36
583477.42
579588.3
575698.99
571809.5
567919.82
564029.95
560139.9
556249.66
552359.24
548468.63
544577.83
540686.85
536795.68
532904.33
529012.79
525121.06
521229.15
517337.05
513444.77
509552.29
505659.64
501766.79
497873.76
493980.55
490087.15
486193.56
482299.78
478405.82
474511.67
470617.34
466722.82
462828.11
458933.21
455038.13
451142.87
447247.41
443351.77
439455.95
435559.93
431663.73
427767.35
423870.77
419974.01
416077.07
412179.93
408282.61
404385.11
400487.41
396589.53
392691.46
388793.21
384894.77
380996.14
377097.32
373198.32
369299.13
365399.76
361500.19
357600.44
353700.51
349800.38
345900.07
341999.57
338098.89
334198.01
330296.95
326395.71
322494.27
318592.65
314690.84
310788.84
306886.66
302984.29
299081.73
295178.98
291276.05
287372.93
283469.62
279566.13
275662.44
271758.57
267854.52
263950.27
260045.84
256141.22
252236.41
248331.41
244426.23
240520.86
236615.3
232709.55
228803.62
224897.49
220991.18
217084.69
213178
209271.13
205364.07
201456.82
197549.38
193641.75
189733.94
185825.94
181917.75
178009.37
174100.81
170192.06
166283.12
162373.99
158464.67
154555.16
150645.47
146735.59
142825.52
138915.26
135004.81
131094.18
127183.35
123272.34
119361.14
115449.75
111538.17
107626.4
103714.44
99802.297
95889.96
91977.433
88064.716
84151.808
80238.708
76325.417
72411.935
68498.261
64584.393
60670.337
56756.085
52841.653
48927.014
45012.23
41097.187
37182.128
33266.598
29351.52
25435.121
21520.941
17602.081
13692.205
9764.5626
5871.783
1911.0169
4100138.9
4008673
3960091.5
3906872.8
3870847.2
3839547.1
3817016.8
3799344.6
3786526.3
3776956.3
3770012.1
3764874.9
3761034.6
3758041.4
3755579.3
3753407.2
3751355.9
3749307.7
3747185
3744940.3
3742547.7
3739997
3737288.6
3734429.9
3731432.4
3728310
3725077.5
3721749.5
3718339.9
3714861.7
3711326.2
3707743.6
3704122.7
3700471.1
3696795
3693099.6
3689389.4
3685667.7
3681937.4
3678200.8
3674459.5
3670715
3666968.2
3663219.9
3659470.8
3655721.2
3651971.3
3648221.4
3644471.7
3640722
3636972.6
3633223.4
3629474.3
3625725.4
3621976.6
3618227.9
3614479.2
3610730.6
3606981.9
3603233.2
3599484.5
3595735.6
3591986.7
3588237.7
3584488.5
3580739.2
3576989.7
3573240.1
3569490.3
3565740.4
3561990.3
3558240
3554489.6
3550739
3546988.2
3543237.3
3539486.2
3535734.9
3531983.4
3528231.8
3524480
3520728.1
3516975.9
3513223.6
3509471.1
3505718.5
3501965.6
3498212.6
3494459.5
3490706.1
3486952.6
3483198.9
3479445.1
3475691
3471936.8
3468182.5
3464427.9
3460673.2
3456918.4
3453163.3
3449408.1
3445652.7
3441897.1
3438141.4
3434385.5
3430629.4
3426873.2
3423116.7
3419360.2
3415603.4
3411846.5
3408089.4
3404332.1
3400574.6
3396817
3393059.2
3389301.3
3385543.1
3381784.8
3378026.4
3374267.7
3370508.9
3366749.9
3362990.8
3359231.4
3355471.9
3351712.2
3347952.4
3344192.4
3340432.2
3336671.8
3332911.3
3329150.6
3325389.7
3321628.7
3317867.5
3314106.1
3310344.5
3306582.8
3302820.9
3299058.8
3295296.6
3291534.1
3287771.5
3284008.8
3280245.8
3276482.7
3272719.5
3268956
3265192.4
3261428.6
3257664.6
3253900.5
3250136.2
3246371.7
3242607
3238842.2
3235077.2
3231312
3227546.7
3223781.2
3220015.5
3216249.6
3212483.6
3208717.4
3204951
3201184.5
3197417.7
3193650.9
3189883.8
3186116.6
3182349.1
3178581.6
3174813.8
3171045.9
3167277.8
3163509.5
3159741.1
3155972.4
3152203.7
3148434.7
3144665.6
3140896.3
3137126.8
3133357.1
3129587.3
3125817.3
3122047.1
3118276.8
3114506.3
3110735.6
3106964.7
3103193.7
3099422.5
3095651.1
3091879.6
3088107.8
3084335.9
3080563.9
3076791.6
3073019.2
3069246.6
3065473.9
3061700.9
3057927.8
3054154.5
3050381.1
3046607.5
3042833.7
3039059.7
3035285.5
3031511.2
3027736.7
3023962.1
3020187.2
3016412.2
3012637
3008861.7
3005086.1
3001310.4
2997534.6
2993758.5
2989982.3
2986205.9
2982429.3
2978652.6
2974875.7
2971098.6
2967321.3
2963543.9
2959766.2
2955988.5
2952210.5
2948432.4
2944654.1
2940875.6
2937096.9
2933318.1
2929539.1
2925759.9
2921980.6
2918201.1
2914421.4
2910641.5
2906861.5
2903081.3
2899300.9
2895520.3
2891739.6
2887958.7
2884177.6
2880396.3
2876614.9
2872833.3
2869051.5
2865269.5
2861487.4
2857705.1
2853922.6
2850140
2846357.2
2842574.2
2838791
2835007.7
2831224.1
2827440.4
2823656.6
2819872.5
2816088.3
2812303.9
2808519.4
2804734.6
2800949.7
2797164.6
2793379.4
2789593.9
2785808.3
2782022.5
2778236.6
2774450.4
2770664.1
2766877.6
2763091
2759304.2
2755517.1
2751730
2747942.6
2744155.1
2740367.4
2736579.5
2732791.4
2729003.2
2725214.8
2721426.2
2717637.5
2713848.6
2710059.5
2706270.2
2702480.7
2698691.1
2694901.3
2691111.3
2687321.2
2683530.9
2679740.4
2675949.7
2672158.8
2668367.8
2664576.6
2660785.2
2656993.7
2653202
2649410.1
2645618
2641825.7
2638033.3
2634240.7
2630447.9
2626655
2622861.9
2619068.6
2615275.1
2611481.4
2607687.6
2603893.6
2600099.4
2596305.1
2592510.6
2588715.9
2584921
2581125.9
2577330.7
2573535.3
2569739.7
2565944
2562148
2558351.9
2554555.7
2550759.2
2546962.6
2543165.8
2539368.8
2535571.6
2531774.3
2527976.8
2524179.1
2520381.2
2516583.2
2512785
2508986.6
2505188
2501389.3
2497590.4
2493791.3
2489992
2486192.6
2482392.9
2478593.1
2474793.2
2470993
2467192.7
2463392.2
2459591.5
2455790.7
2451989.7
2448188.4
2444387.1
2440585.5
2436783.8
2432981.9
2429179.8
2425377.5
2421575.1
2417772.5
2413969.7
2410166.7
2406363.6
2402560.3
2398756.8
2394953.1
2391149.3
2387345.2
2383541
2379736.7
2375932.1
2372127.4
2368322.5
2364517.4
2360712.1
2356906.7
2353101.1
2349295.3
2345489.3
2341683.2
2337876.9
2334070.4
2330263.7
2326456.9
2322649.9
2318842.7
2315035.3
2311227.7
2307420
2303612.1
2299804
2295995.7
2292187.3
2288378.7
2284569.9
2280760.9
2276951.8
2273142.5
2269333
2265523.3
2261713.4
2257903.4
2254093.2
2250282.8
2246472.2
2242661.5
2238850.6
2235039.5
2231228.2
2227416.8
2223605.2
2219793.4
2215981.4
2212169.2
2208356.9
2204544.4
2200731.7
2196918.8
2193105.8
2189292.6
2185479.2
2181665.6
2177851.8
2174037.9
2170223.8
2166409.5
2162595
2158780.4
2154965.6
2151150.6
2147335.4
2143520.1
2139704.5
2135888.8
2132072.9
2128256.9
2124440.6
2120624.2
2116807.6
2112990.9
2109173.9
2105356.8
2101539.5
2097722
2093904.3
2090086.5
2086268.5
2082450.3
2078631.9
2074813.4
2070994.6
2067175.7
2063356.6
2059537.4
2055717.9
2051898.3
2048078.5
2044258.5
2040438.4
2036618.1
2032797.5
2028976.9
2025156
2021334.9
2017513.7
2013692.3
2009870.7
2006049
2002227.1
1998404.9
1994582.6
1990760.2
1986937.5
1983114.7
1979291.7
1975468.5
1971645.1
1967821.6
1963997.9
1960174
1956349.9
1952525.6
1948701.2
1944876.6
1941051.8
1937226.8
1933401.7
1929576.4
1925750.8
1921925.2
1918099.3
1914273.2
1910447
1906620.6
1902794
1898967.3
1895140.3
1891313.2
1887485.9
1883658.5
1879830.8
1876003
1872175
1868346.8
1864518.4
1860689.9
1856861.1
1853032.2
1849203.1
1845373.9
1841544.4
1837714.8
1833885
1830055
1826224.8
1822394.5
1818564
1814733.3
1810902.4
1807071.4
1803240.1
1799408.7
1795577.1
1791745.3
1787913.4
1784081.2
1780248.9
1776416.4
1772583.8
1768750.9
1764917.9
1761084.7
1757251.3
1753417.7
1749583.9
1745750
1741915.9
1738081.6
1734247.1
1730412.5
1726577.7
1722742.7
1718907.5
1715072.1
1711236.5
1707400.8
1703564.9
1699728.8
1695892.5
1692056.1
1688219.5
1684382.7
1680545.7
1676708.5
1672871.2
1669033.6
1665195.9
1661358
1657520
1653681.7
1649843.3
1646004.7
1642165.9
1638326.9
1634487.8
1630648.4
1626808.9
1622969.2
1619129.4
1615289.3
1611449.1
1607608.7
1603768.1
1599927.3
1596086.3
1592245.2
1588403.9
1584562.4
1580720.7
1576878.9
1573036.8
1569194.6
1565352.2
1561509.6
1557666.9
1553823.9
1549980.8
1546137.5
1542294
1538450.4
1534606.5
1530762.5
1526918.3
1523073.9
1519229.3
1515384.6
1511539.7
1507694.6
1503849.3
1500003.8
1496158.1
1492312.3
1488466.3
1484620.1
1480773.7
1476927.2
1473080.4
1469233.5
1465386.4
1461539.1
1457691.6
1453844
1449996.2
1446148.2
1442300
1438451.6
1434603.1
1430754.3
1426905.4
1423056.3
1419207
1415357.6
1411507.9
1407658.1
1403808.1
1399957.9
1396107.6
1392257
1388406.3
1384555.4
1380704.3
1376853
1373001.6
1369149.9
1365298.1
1361446.1
1357593.9
1353741.6
1349889
1346036.3
1342183.4
1338330.3
1334477
1330623.6
1326769.9
1322916.1
1319062.1
1315207.9
1311353.6
1307499
1303644.3
1299789.4
1295934.3
1292079
1288223.6
1284367.9
1280512.1
1276656.1
1272799.9
1268943.5
1265087
1261230.3
1257373.3
1253516.2
1249659
1245801.5
1241943.9
1238086
1234228
1230369.8
1226511.5
1222652.9
1218794.2
1214935.3
1211076.2
1207216.9
1203357.4
1199497.8
1195637.9
1191777.9
1187917.7
1184057.3
1180196.8
1176336
1172475.1
1168614
1164752.7
1160891.2
1157029.6
1153167.7
1149305.7
1145443.5
1141581.1
1137718.5
1133855.8
1129992.8
1126129.7
1122266.4
1118402.9
1114539.2
1110675.4
1106811.3
1102947.1
1099082.7
1095218.1
1091353.4
1087488.4
1083623.3
1079758
1075892.5
1072026.8
1068160.9
1064294.9
1060428.6
1056562.2
1052695.6
1048828.8
1044961.8
1041094.7
1037227.4
1033359.8
1029492.1
1025624.2
1021756.2
1017887.9
1014019.5
1010150.9
1006282.1
1002413.1
998543.91
994674.56
990805.02
986935.3
983065.39
979195.31
975325.03
971454.58
967583.94
963713.11
959842.11
955970.91
952099.54
948227.98
944356.24
940484.31
936612.2
932739.9
928867.42
924994.76
921121.91
917248.88
913375.67
909502.27
905628.69
901754.92
897880.97
894006.83
890132.51
886258.01
882383.32
878508.45
874633.39
870758.15
866882.72
863007.11
859131.32
855255.34
851379.18
847502.83
843626.3
839749.58
835872.68
831995.6
828118.33
824240.87
820363.23
816485.41
812607.4
808729.21
804850.83
800972.27
797093.52
793214.59
789335.47
785456.17
781576.69
777697.02
773817.16
769937.12
766056.9
762176.49
758295.89
754415.11
750534.15
746653
742771.66
738890.15
735008.44
731126.55
727244.48
723362.22
719479.77
715597.14
711714.33
707831.33
703948.14
700064.77
696181.22
692297.47
688413.55
684529.44
680645.14
676760.66
672875.99
668991.14
665106.1
661220.88
657335.47
653449.87
649564.09
645678.13
641791.97
637905.64
634019.12
630132.41
626245.51
622358.44
618471.17
614583.72
610696.08
606808.26
602920.26
599032.06
595143.68
591255.12
587366.37
583477.43
579588.31
575699
571809.51
567919.83
564029.96
560139.91
556249.67
552359.25
548468.64
544577.84
540686.86
536795.69
532904.34
529012.8
525121.07
521229.16
517337.06
513444.78
509552.31
505659.65
501766.8
497873.77
493980.56
490087.16
486193.57
482299.79
478405.83
474511.68
470617.35
466722.83
462828.12
458933.23
455038.15
451142.88
447247.42
443351.78
439455.96
435559.94
431663.74
427767.36
423870.78
419974.02
416077.08
412179.94
408282.62
404385.12
400487.42
396589.54
392691.47
388793.22
384894.78
380996.15
377097.34
373198.33
369299.14
365399.77
361500.2
357600.45
353700.52
349800.39
345900.08
341999.58
338098.9
334198.02
330296.96
326395.72
322494.28
318592.66
314690.85
310788.85
306886.67
302984.3
299081.74
295179
291276.06
287372.94
283469.63
279566.14
275662.46
271758.58
267854.53
263950.28
260045.85
256141.23
252236.42
248331.42
244426.24
240520.87
236615.31
232709.56
228803.63
224897.51
220991.2
217084.7
213178.01
209271.14
205364.08
201456.83
197549.39
193641.77
189733.95
185825.95
181917.76
178009.39
174100.82
170192.07
166283.13
162374
158464.68
154555.17
150645.48
146735.6
142825.53
138915.27
135004.82
131094.19
127183.36
123272.35
119361.15
115449.76
111538.18
107626.41
103714.46
99802.308
95889.971
91977.444
88064.727
84151.819
80238.719
76325.429
72411.946
68498.272
64584.404
60670.348
56756.096
52841.664
48927.025
45012.239
41097.2
37182.132
33266.616
29351.509
25435.162
21520.876
17602.221
13691.935
9765.0821
5870.7097
1912.5948
4098772.7
4007500.1
3958723.7
3905740.7
3869794.8
3838693.5
3816305.9
3798790.6
3786096.4
3776636.6
3769779.1
3764712
3760925.3
3757972.9
3755540.8
3753390.3
3751354
3749315.7
3747199.2
3744957.9
3742566.8
3740016.2
3737307
3734446.9
3731447.8
3728323.6
3725089.3
3721759.6
3718348.5
3714868.8
3711332
3707748.4
3704126.6
3700474.2
3696797.4
3693101.5
3689390.8
3685668.8
3681938.2
3678201.4
3674459.9
3670715.3
3666968.4
3663220.1
3659470.9
3655721.2
3651971.3
3648221.4
3644471.6
3640722
3636972.6
3633223.3
3629474.3
3625725.4
3621976.6
3618227.9
3614479.2
3610730.6
3606981.9
3603233.2
3599484.5
3595735.7
3591986.7
3588237.7
3584488.5
3580739.2
3576989.7
3573240.1
3569490.3
3565740.4
3561990.3
3558240.1
3554489.6
3550739
3546988.3
3543237.3
3539486.2
3535734.9
3531983.5
3528231.8
3524480
3520728.1
3516975.9
3513223.6
3509471.1
3505718.5
3501965.6
3498212.6
3494459.5
3490706.1
3486952.6
3483198.9
3479445.1
3475691.1
3471936.9
3468182.5
3464428
3460673.3
3456918.4
3453163.3
3449408.1
3445652.7
3441897.1
3438141.4
3434385.5
3430629.4
3426873.2
3423116.8
3419360.2
3415603.4
3411846.5
3408089.4
3404332.1
3400574.7
3396817
3393059.3
3389301.3
3385543.2
3381784.9
3378026.4
3374267.7
3370508.9
3366749.9
3362990.8
3359231.4
3355471.9
3351712.3
3347952.4
3344192.4
3340432.2
3336671.9
3332911.3
3329150.6
3325389.7
3321628.7
3317867.5
3314106.1
3310344.5
3306582.8
3302820.9
3299058.8
3295296.6
3291534.2
3287771.6
3284008.8
3280245.9
3276482.8
3272719.5
3268956
3265192.4
3261428.6
3257664.6
3253900.5
3250136.2
3246371.7
3242607.1
3238842.2
3235077.2
3231312.1
3227546.7
3223781.2
3220015.5
3216249.6
3212483.6
3208717.4
3204951
3201184.5
3197417.8
3193650.9
3189883.8
3186116.6
3182349.2
3178581.6
3174813.8
3171045.9
3167277.8
3163509.5
3159741.1
3155972.5
3152203.7
3148434.7
3144665.6
3140896.3
3137126.8
3133357.1
3129587.3
3125817.3
3122047.1
3118276.8
3114506.3
3110735.6
3106964.7
3103193.7
3099422.5
3095651.1
3091879.6
3088107.8
3084336
3080563.9
3076791.6
3073019.2
3069246.6
3065473.9
3061700.9
3057927.8
3054154.6
3050381.1
3046607.5
3042833.7
3039059.7
3035285.6
3031511.2
3027736.7
3023962.1
3020187.2
3016412.2
3012637
3008861.7
3005086.2
3001310.5
2997534.6
2993758.5
2989982.3
2986205.9
2982429.3
2978652.6
2974875.7
2971098.6
2967321.3
2963543.9
2959766.3
2955988.5
2952210.5
2948432.4
2944654.1
2940875.6
2937097
2933318.1
2929539.1
2925760
2921980.6
2918201.1
2914421.4
2910641.5
2906861.5
2903081.3
2899300.9
2895520.3
2891739.6
2887958.7
2884177.6
2880396.3
2876614.9
2872833.3
2869051.5
2865269.6
2861487.4
2857705.1
2853922.7
2850140
2846357.2
2842574.2
2838791
2835007.7
2831224.2
2827440.5
2823656.6
2819872.5
2816088.3
2812303.9
2808519.4
2804734.6
2800949.7
2797164.6
2793379.4
2789593.9
2785808.3
2782022.5
2778236.6
2774450.5
2770664.1
2766877.7
2763091
2759304.2
2755517.2
2751730
2747942.6
2744155.1
2740367.4
2736579.5
2732791.5
2729003.2
2725214.8
2721426.3
2717637.5
2713848.6
2710059.5
2706270.2
2702480.8
2698691.1
2694901.3
2691111.4
2687321.2
2683530.9
2679740.4
2675949.7
2672158.9
2668367.8
2664576.6
2660785.3
2656993.7
2653202
2649410.1
2645618
2641825.8
2638033.3
2634240.7
2630448
2626655
2622861.9
2619068.6
2615275.1
2611481.5
2607687.6
2603893.6
2600099.5
2596305.1
2592510.6
2588715.9
2584921
2581126
2577330.7
2573535.3
2569739.7
2565944
2562148.1
2558352
2554555.7
2550759.2
2546962.6
2543165.8
2539368.8
2535571.6
2531774.3
2527976.8
2524179.1
2520381.2
2516583.2
2512785
2508986.6
2505188
2501389.3
2497590.4
2493791.3
2489992
2486192.6
2482393
2478593.2
2474793.2
2470993
2467192.7
2463392.2
2459591.5
2455790.7
2451989.7
2448188.5
2444387.1
2440585.5
2436783.8
2432981.9
2429179.8
2425377.6
2421575.1
2417772.5
2413969.7
2410166.7
2406363.6
2402560.3
2398756.8
2394953.1
2391149.3
2387345.3
2383541.1
2379736.7
2375932.1
2372127.4
2368322.5
2364517.4
2360712.2
2356906.7
2353101.1
2349295.3
2345489.4
2341683.2
2337876.9
2334070.4
2330263.7
2326456.9
2322649.9
2318842.7
2315035.3
2311227.7
2307420
2303612.1
2299804
2295995.8
2292187.3
2288378.7
2284569.9
2280760.9
2276951.8
2273142.5
2269333
2265523.3
2261713.4
2257903.4
2254093.2
2250282.8
2246472.3
2242661.5
2238850.6
2235039.5
2231228.2
2227416.8
2223605.2
2219793.4
2215981.4
2212169.2
2208356.9
2204544.4
2200731.7
2196918.8
2193105.8
2189292.6
2185479.2
2181665.6
2177851.8
2174037.9
2170223.8
2166409.5
2162595.1
2158780.4
2154965.6
2151150.6
2147335.4
2143520.1
2139704.6
2135888.9
2132073
2128256.9
2124440.7
2120624.3
2116807.7
2112990.9
2109173.9
2105356.8
2101539.5
2097722
2093904.4
2090086.5
2086268.5
2082450.3
2078631.9
2074813.4
2070994.7
2067175.7
2063356.7
2059537.4
2055718
2051898.3
2048078.5
2044258.6
2040438.4
2036618.1
2032797.6
2028976.9
2025156
2021335
2017513.7
2013692.3
2009870.8
2006049
2002227.1
1998405
1994582.7
1990760.2
1986937.5
1983114.7
1979291.7
1975468.5
1971645.2
1967821.6
1963997.9
1960174
1956349.9
1952525.7
1948701.2
1944876.6
1941051.8
1937226.8
1933401.7
1929576.4
1925750.9
1921925.2
1918099.3
1914273.3
1910447
1906620.6
1902794.1
1898967.3
1895140.4
1891313.3
1887486
1883658.5
1879830.8
1876003
1872175
1868346.8
1864518.4
1860689.9
1856861.1
1853032.2
1849203.1
1845373.9
1841544.4
1837714.8
1833885
1830055
1826224.9
1822394.5
1818564
1814733.3
1810902.4
1807071.4
1803240.1
1799408.7
1795577.1
1791745.3
1787913.4
1784081.3
1780248.9
1776416.4
1772583.8
1768750.9
1764917.9
1761084.7
1757251.3
1753417.7
1749584
1745750
1741915.9
1738081.6
1734247.2
1730412.5
1726577.7
1722742.7
1718907.5
1715072.1
1711236.6
1707400.8
1703564.9
1699728.8
1695892.6
1692056.1
1688219.5
1684382.7
1680545.7
1676708.5
1672871.2
1669033.7
1665195.9
1661358.1
1657520
1653681.7
1649843.3
1646004.7
1642165.9
1638326.9
1634487.8
1630648.5
1626808.9
1622969.3
1619129.4
1615289.3
1611449.1
1607608.7
1603768.1
1599927.3
1596086.4
1592245.2
1588403.9
1584562.4
1580720.7
1576878.9
1573036.9
1569194.6
1565352.2
1561509.7
1557666.9
1553824
1549980.8
1546137.5
1542294.1
1538450.4
1534606.5
1530762.5
1526918.3
1523073.9
1519229.4
1515384.6
1511539.7
1507694.6
1503849.3
1500003.8
1496158.2
1492312.3
1488466.3
1484620.1
1480773.7
1476927.2
1473080.4
1469233.5
1465386.4
1461539.1
1457691.7
1453844
1449996.2
1446148.2
1442300
1438451.6
1434603.1
1430754.3
1426905.4
1423056.3
1419207.1
1415357.6
1411508
1407658.1
1403808.1
1399958
1396107.6
1392257
1388406.3
1384555.4
1380704.3
1376853
1373001.6
1369149.9
1365298.1
1361446.1
1357593.9
1353741.6
1349889
1346036.3
1342183.4
1338330.3
1334477
1330623.6
1326769.9
1322916.1
1319062.1
1315207.9
1311353.6
1307499
1303644.3
1299789.4
1295934.3
1292079
1288223.6
1284367.9
1280512.1
1276656.1
1272799.9
1268943.6
1265087
1261230.3
1257373.4
1253516.3
1249659
1245801.5
1241943.9
1238086.1
1234228.1
1230369.9
1226511.5
1222652.9
1218794.2
1214935.3
1211076.2
1207216.9
1203357.4
1199497.8
1195637.9
1191777.9
1187917.7
1184057.4
1180196.8
1176336
1172475.1
1168614
1164752.7
1160891.2
1157029.6
1153167.7
1149305.7
1145443.5
1141581.1
1137718.5
1133855.8
1129992.8
1126129.7
1122266.4
1118402.9
1114539.3
1110675.4
1106811.4
1102947.1
1099082.7
1095218.2
1091353.4
1087488.4
1083623.3
1079758
1075892.5
1072026.8
1068160.9
1064294.9
1060428.6
1056562.2
1052695.6
1048828.8
1044961.9
1041094.7
1037227.4
1033359.9
1029492.2
1025624.3
1021756.2
1017887.9
1014019.5
1010150.9
1006282.1
1002413.1
998543.93
994674.58
990805.04
986935.32
983065.41
979195.32
975325.05
971454.6
967583.96
963713.13
959842.12
955970.93
952099.56
948228
944356.26
940484.33
936612.22
932739.92
928867.44
924994.78
921121.93
917248.9
913375.69
909502.29
905628.7
901754.94
897880.99
894006.85
890132.53
886258.03
882383.34
878508.47
874633.41
870758.17
866882.74
863007.13
859131.34
855255.36
851379.2
847502.85
843626.32
839749.6
835872.7
831995.61
828118.34
824240.89
820363.25
816485.43
812607.42
808729.23
804850.85
800972.29
797093.54
793214.61
789335.49
785456.19
781576.71
777697.04
773817.18
769937.14
766056.92
762176.51
758295.91
754415.13
750534.17
746653.02
742771.68
738890.16
735008.46
731126.57
727244.5
723362.24
719479.79
715597.16
711714.35
707831.35
703948.16
700064.79
696181.24
692297.49
688413.57
684529.46
680645.16
676760.68
672876.01
668991.16
665106.12
661220.89
657335.49
653449.89
649564.11
645678.15
641791.99
637905.66
634019.14
630132.43
626245.53
622358.46
618471.19
614583.74
610696.1
606808.28
602920.27
599032.08
595143.7
591255.14
587366.39
583477.45
579588.33
575699.02
571809.53
567919.85
564029.98
560139.93
556249.69
552359.27
548468.66
544577.86
540686.88
536795.71
532904.36
529012.82
525121.09
521229.18
517337.08
513444.8
509552.33
505659.67
501766.82
497873.79
493980.58
490087.18
486193.59
482299.81
478405.85
474511.7
470617.37
466722.85
462828.14
458933.25
455038.16
451142.9
447247.44
443351.8
439455.98
435559.96
431663.76
427767.38
423870.8
419974.04
416077.1
412179.96
408282.64
404385.14
400487.44
396589.56
392691.49
388793.24
384894.8
380996.17
377097.35
373198.35
369299.16
365399.79
361500.22
357600.47
353700.54
349800.41
345900.1
341999.6
338098.92
334198.04
330296.98
326395.74
322494.3
318592.68
314690.87
310788.87
306886.69
302984.32
299081.76
295179.01
291276.08
287372.96
283469.65
279566.16
275662.47
271758.6
267854.55
263950.3
260045.87
256141.25
252236.44
248331.44
244426.26
240520.89
236615.33
232709.58
228803.65
224897.52
220991.21
217084.72
213178.03
209271.16
205364.1
201456.85
197549.41
193641.79
189733.97
185825.97
181917.78
178009.41
174100.84
170192.09
166283.15
162374.02
158464.7
154555.19
150645.5
146735.62
142825.55
138915.29
135004.84
131094.21
127183.38
123272.37
119361.17
115449.78
111538.2
107626.43
103714.47
99802.328
95889.991
91977.464
88064.747
84151.839
80238.739