/*--------------------------------*- C++ -*----------------------------------*\
  =========                 |
  \\      /  F ield         | OpenFOAM: The Open Source CFD Toolbox
   \\    /   O peration     | Website:  https://openfoam.org
    \\  /    A nd           | Version:  6
     \\/     M anipulation  |
\*---------------------------------------------------------------------------*/
FoamFile
{
    version     2.0;
    format      ascii;
    class       volScalarField;
    location    "3196";
    object      p;
}
// * * * * * * * * * * * * * * * * * * * * * * * * * * * * * * * * * * * * * //

dimensions      [0 2 -2 0 0 0 0];

internalField   nonuniform List<scalar> 
10000
(
5851866.4
5713179.8
5656395
5608990.1
5583370.6
5566282.2
5554280.4
5545038.7
5536319.9
5527837
5518885.7
5509563.1
5499765.4
5489625
5479187.3
5468546
5457753.6
5446863.1
5435906.5
5424909.5
5413887.7
5402851.8
5391808
5380760.2
5369710.4
5358659.8
5347608.7
5336557.3
5325505.5
5314453.3
5303400.4
5292346.8
5281292.4
5270237.1
5259180.9
5248123.8
5237065.7
5226006.6
5214946.5
5203885.4
5192823.3
5181760.2
5170696
5159630.9
5148564.8
5137497.6
5126429.5
5115360.3
5104290.2
5093219
5082146.9
5071073.7
5059999.5
5048924.3
5037848.1
5026770.9
5015692.7
5004613.5
4993533.3
4982452
4971369.8
4960286.5
4949202.3
4938117
4927030.7
4915943.4
4904855.1
4893765.8
4882675.5
4871584.2
4860491.9
4849398.5
4838304.1
4827208.8
4816112.4
4805015
4793916.6
4782817.2
4771716.7
4760615.3
4749512.8
4738409.4
4727304.9
4716199.4
4705092.9
4693985.4
4682876.8
4671767.3
4660656.7
4649545.1
4638432.5
4627318.9
4616204.3
4605088.7
4593972
4582854.4
4571735.7
4560616
4549495.2
4538373.5
4527250.8
4516127
4505002.2
4493876.4
4482749.6
4471621.7
4460492.9
4449363
4438232.1
4427100.2
4415967.2
4404833.3
4393698.3
4382562.3
4371425.3
4360287.3
4349148.2
4338008.1
4326867
4315724.9
4304581.8
4293437.6
4282292.4
4271146.2
4259999
4248850.8
4237701.5
4226551.2
4215399.9
4204247.6
4193094.2
4181939.8
4170784.4
4159628
4148470.5
4137312
4126152.5
4114992
4103830.4
4092667.8
4081504.2
4070339.6
4059173.9
4048007.2
4036839.5
4025670.8
4014501
4003330.2
3992158.4
3980985.6
3969811.7
3958636.8
3947460.8
3936283.9
3925105.9
3913926.9
3902746.8
3891565.7
3880383.6
3869200.5
3858016.3
3846831.1
3835644.9
3824457.6
3813269.3
3802080
3790889.7
3779698.3
3768505.9
3757312.4
3746117.9
3734922.4
3723725.9
3712528.3
3701329.7
3690130
3678929.4
3667727.6
3656524.9
3645321.1
3634116.3
3622910.5
3611703.6
3600495.7
3589286.7
3578076.7
3566865.7
3555653.6
3544440.5
3533226.4
3522011.2
3510795
3499577.8
3488359.5
3477140.2
3465919.8
3454698.4
3443476
3432252.5
3421028
3409802.4
3398575.8
3387348.2
3376119.5
3364889.8
3353659.1
3342427.3
3331194.5
3319960.6
3308725.7
3297489.7
3286252.8
3275014.7
3263775.6
3252535.5
3241294.4
3230052.2
3218808.9
3207564.6
3196319.3
3185072.9
3173825.5
3162577
3151327.5
3140077
3128825.4
3117572.8
3106319.1
3095064.3
3083808.6
3072551.7
3061293.9
3050035
3038775
3027514
3016252
3004988.9
2993724.7
2982459.5
2971193.3
2959926
2948657.6
2937388.3
2926117.8
2914846.3
2903573.8
2892300.2
2881025.6
2869749.9
2858473.2
2847195.4
2835916.6
2824636.7
2813355.8
2802073.8
2790790.8
2779506.7
2768221.5
2756935.4
2745648.1
2734359.8
2723070.5
2711780.1
2700488.6
2689196.1
2677902.6
2666608
2655312.3
2644015.6
2632717.8
2621419
2610119.1
2598818.1
2587516.2
2576213.1
2564909
2553603.8
2542297.6
2530990.3
2519682
2508372.6
2497062.2
2485750.7
2474438.1
2463124.5
2451809.8
2440494.1
2429177.3
2417859.4
2406540.5
2395220.6
2383899.5
2372577.5
2361254.3
2349930.1
2338604.8
2327278.5
2315951.1
2304622.7
2293293.1
2281962.6
2270630.9
2259298.2
2247964.5
2236629.7
2225293.8
2213956.8
2202618.8
2191279.7
2179939.6
2168598.4
2157256.1
2145912.8
2134568.4
2123222.9
2111876.4
2100528.8
2089180.2
2077830.5
2066479.7
2055127.8
2043774.9
2032420.9
2021065.9
2009709.7
1998352.6
1986994.3
1975635
1964274.6
1952913.1
1941550.6
1930187
1918822.4
1907456.6
1896089.8
1884721.9
1873353
1861983
1850611.9
1839239.8
1827866.5
1816492.2
1805116.9
1793740.4
1782362.9
1770984.4
1759604.7
1748224
1736842.2
1725459.3
1714075.4
1702690.3
1691304.3
1679917.1
1668528.9
1657139.5
1645749.2
1634357.7
1622965.2
1611571.5
1600176.9
1588781.1
1577384.3
1565986.3
1554587.4
1543187.3
1531786.1
1520383.9
1508980.6
1497576.2
1486170.8
1474764.3
1463356.6
1451948
1440538.2
1429127.3
1417715.4
1406302.4
1394888.3
1383473.2
1372056.9
1360639.6
1349221.2
1337801.7
1326381.1
1314959.5
1303536.8
1292112.9
1280688.1
1269262.1
1257835
1246406.9
1234977.6
1223547.3
1212116
1200683.5
1189249.9
1177815.3
1166379.5
1154942.7
1143504.8
1132065.9
1120625.8
1109184.6
1097742.4
1086299.1
1074854.7
1063409.2
1051962.6
1040514.9
1029066.1
1017616.3
1006165.4
994713.35
983260.24
971806.04
960350.75
948894.38
937436.91
925978.36
914518.72
903057.98
891596.16
880133.24
868669.24
857204.14
845737.96
834270.68
822802.31
811332.85
799862.29
788390.65
776917.91
765444.08
753969.16
742493.14
731016.03
719537.83
708058.53
696578.14
685096.65
673614.07
662130.39
650645.62
639159.75
627672.79
616184.73
604695.58
593205.33
581713.98
570221.54
558728
547233.36
535737.62
524240.79
512742.86
501243.83
489743.7
478242.47
466740.15
455236.72
443732.19
432226.57
420719.85
409212.02
397703.1
386193.07
374681.94
363169.71
351656.38
340141.95
328626.42
317109.79
305592.05
294073.21
282553.26
271032.22
259510.07
247986.82
236462.46
224937
213410.43
201882.76
190353.98
178824.1
167293.1
155761.01
144227.78
132693.48
121157.99
109621.51
98083.653
86545.216
75004.607
63465.107
51920.191
40383.436
28827.382
17309.48
5711.7547
5847989.8
5711877.1
5654174.2
5607927.8
5582576.1
5565881.9
5554072.6
5544952.4
5536303.9
5527849
5518912.3
5509589.8
5499789.9
5489644.3
5479202
5468556.5
5457760.9
5446867.8
5435909.6
5424911.4
5413888.8
5402852.4
5391808.3
5380760.3
5369710.5
5358659.9
5347608.8
5336557.3
5325505.6
5314453.3
5303400.4
5292346.8
5281292.5
5270237.2
5259181
5248123.9
5237065.8
5226006.7
5214946.5
5203885.4
5192823.3
5181760.2
5170696.1
5159631
5148564.8
5137497.7
5126429.6
5115360.4
5104290.3
5093219.1
5082146.9
5071073.8
5059999.6
5048924.4
5037848.2
5026771
5015692.8
5004613.6
4993533.3
4982452.1
4971369.9
4960286.6
4949202.3
4938117.1
4927030.8
4915943.5
4904855.2
4893765.9
4882675.6
4871584.3
4860491.9
4849398.6
4838304.2
4827208.8
4816112.5
4805015.1
4793916.7
4782817.2
4771716.8
4760615.4
4749512.9
4738409.4
4727305
4716199.5
4705093
4693985.4
4682876.9
4671767.4
4660656.8
4649545.2
4638432.6
4627319
4616204.4
4605088.7
4593972.1
4582854.4
4571735.7
4560616
4549495.3
4538373.6
4527250.8
4516127.1
4505002.3
4493876.5
4482749.6
4471621.8
4460492.9
4449363.1
4438232.2
4427100.2
4415967.3
4404833.4
4393698.4
4382562.4
4371425.4
4360287.3
4349148.3
4338008.2
4326867.1
4315725
4304581.9
4293437.7
4282292.5
4271146.3
4259999.1
4248850.8
4237701.6
4226551.3
4215400
4204247.6
4193094.3
4181939.9
4170784.5
4159628
4148470.6
4137312.1
4126152.6
4114992
4103830.5
4092667.9
4081504.3
4070339.7
4059174
4048007.3
4036839.6
4025670.9
4014501.1
4003330.3
3992158.5
3980985.6
3969811.7
3958636.8
3947460.9
3936283.9
3925105.9
3913926.9
3902746.9
3891565.8
3880383.7
3869200.6
3858016.4
3846831.2
3835645
3824457.7
3813269.4
3802080.1
3790889.7
3779698.3
3768505.9
3757312.5
3746118
3734922.5
3723725.9
3712528.4
3701329.8
3690130.1
3678929.4
3667727.7
3656525
3645321.2
3634116.4
3622910.5
3611703.6
3600495.7
3589286.8
3578076.8
3566865.8
3555653.7
3544440.6
3533226.5
3522011.3
3510795.1
3499577.8
3488359.5
3477140.2
3465919.9
3454698.5
3443476
3432252.6
3421028.1
3409802.5
3398575.9
3387348.3
3376119.6
3364889.9
3353659.2
3342427.4
3331194.5
3319960.7
3308725.8
3297489.8
3286252.8
3275014.8
3263775.7
3252535.6
3241294.4
3230052.2
3218809
3207564.7
3196319.4
3185073
3173825.6
3162577.1
3151327.6
3140077.1
3128825.5
3117572.8
3106319.1
3095064.4
3083808.6
3072551.8
3061293.9
3050035
3038775.1
3027514.1
3016252
3004988.9
2993724.8
2982459.6
2971193.3
2959926.1
2948657.7
2937388.3
2926117.9
2914846.4
2903573.9
2892300.3
2881025.7
2869750
2858473.3
2847195.5
2835916.7
2824636.8
2813355.8
2802073.9
2790790.8
2779506.7
2768221.6
2756935.4
2745648.2
2734359.9
2723070.5
2711780.1
2700488.7
2689196.2
2677902.6
2666608
2655312.4
2644015.6
2632717.9
2621419
2610119.2
2598818.2
2587516.2
2576213.2
2564909.1
2553603.9
2542297.7
2530990.4
2519682.1
2508372.7
2497062.2
2485750.7
2474438.2
2463124.6
2451809.9
2440494.2
2429177.4
2417859.5
2406540.6
2395220.6
2383899.6
2372577.5
2361254.4
2349930.2
2338604.9
2327278.6
2315951.2
2304622.7
2293293.2
2281962.6
2270631
2259298.3
2247964.5
2236629.7
2225293.8
2213956.9
2202618.9
2191279.8
2179939.7
2168598.5
2157256.2
2145912.9
2134568.5
2123223
2111876.5
2100528.9
2089180.2
2077830.5
2066479.7
2055127.9
2043775
2032421
2021065.9
2009709.8
1998352.6
1986994.4
1975635.1
1964274.7
1952913.2
1941550.7
1930187.1
1918822.4
1907456.7
1896089.9
1884722
1873353.1
1861983.1
1850612
1839239.8
1827866.6
1816492.3
1805116.9
1793740.5
1782363
1770984.4
1759604.8
1748224
1736842.2
1725459.4
1714075.4
1702690.4
1691304.3
1679917.2
1668528.9
1657139.6
1645749.2
1634357.8
1622965.2
1611571.6
1600176.9
1588781.2
1577384.3
1565986.4
1554587.4
1543187.4
1531786.2
1520384
1508980.7
1497576.3
1486170.9
1474764.3
1463356.7
1451948
1440538.3
1429127.4
1417715.5
1406302.5
1394888.4
1383473.2
1372057
1360639.7
1349221.3
1337801.8
1326381.2
1314959.6
1303536.8
1292113
1280688.1
1269262.1
1257835.1
1246406.9
1234977.7
1223547.4
1212116
1200683.5
1189250
1177815.3
1166379.6
1154942.8
1143504.9
1132065.9
1120625.9
1109184.7
1097742.5
1086299.1
1074854.7
1063409.2
1051962.6
1040515
1029066.2
1017616.4
1006165.4
994713.42
983260.31
971806.11
960350.82
948894.45
937436.98
925978.43
914518.78
903058.05
891596.23
880133.31
868669.31
857204.21
845738.03
834270.75
822802.38
811332.92
799862.36
788390.72
776917.98
765444.15
753969.23
742493.21
731016.1
719537.89
708058.6
696578.2
685096.72
673614.14
662130.46
650645.69
639159.82
627672.86
616184.8
604695.65
593205.4
581714.05
570221.61
558728.07
547233.43
535737.69
524240.86
512742.93
501243.9
489743.77
478242.54
466740.21
455236.79
443732.26
432226.64
420719.91
409212.09
397703.16
386193.14
374682.01
363169.78
351656.45
340142.02
328626.49
317109.85
305592.12
294073.28
282553.33
271032.29
259510.14
247986.89
236462.53
224937.07
213410.5
201882.83
190354.05
178824.17
167293.17
155761.08
144227.85
132693.54
121158.06
109621.58
98083.731
86545.267
75004.708
63465.097
51920.39
40383.172
28828.029
17308.106
5713.861
5842211.5
5707957.5
5650682.5
5605941.7
5581256.2
5565213.7
5553731.8
5544830
5536286.9
5527883.3
5518963.8
5509641.5
5499834.7
5489679.6
5479228.3
5468575.1
5457773.6
5446876.2
5435914.9
5424914.6
5413890.7
5402853.4
5391808.8
5380760.6
5369710.6
5358659.9
5347608.8
5336557.4
5325505.6
5314453.4
5303400.5
5292346.9
5281292.6
5270237.3
5259181.1
5248124
5237065.9
5226006.8
5214946.7
5203885.6
5192823.5
5181760.3
5170696.2
5159631.1
5148565
5137497.8
5126429.7
5115360.5
5104290.4
5093219.2
5082147.1
5071073.9
5059999.7
5048924.5
5037848.3
5026771.1
5015692.9
5004613.7
4993533.5
4982452.2
4971370
4960286.7
4949202.5
4938117.2
4927030.9
4915943.6
4904855.3
4893766
4882675.7
4871584.4
4860492
4849398.7
4838304.3
4827209
4816112.6
4805015.2
4793916.8
4782817.4
4771716.9
4760615.5
4749513
4738409.6
4727305.1
4716199.6
4705093.1
4693985.6
4682877
4671767.5
4660656.9
4649545.3
4638432.7
4627319.1
4616204.5
4605088.9
4593972.2
4582854.5
4571735.9
4560616.2
4549495.4
4538373.7
4527250.9
4516127.2
4505002.4
4493876.6
4482749.8
4471621.9
4460493.1
4449363.2
4438232.3
4427100.4
4415967.4
4404833.5
4393698.5
4382562.5
4371425.5
4360287.5
4349148.4
4338008.3
4326867.2
4315725.1
4304582
4293437.8
4282292.6
4271146.4
4259999.2
4248851
4237701.7
4226551.4
4215400.1
4204247.7
4193094.4
4181940
4170784.6
4159628.2
4148470.7
4137312.2
4126152.7
4114992.2
4103830.6
4092668
4081504.4
4070339.8
4059174.1
4048007.4
4036839.7
4025671
4014501.2
4003330.4
3992158.6
3980985.7
3969811.9
3958637
3947461
3936284.1
3925106.1
3913927
3902747
3891565.9
3880383.8
3869200.7
3858016.5
3846831.3
3835645.1
3824457.8
3813269.5
3802080.2
3790889.9
3779698.5
3768506.1
3757312.6
3746118.1
3734922.6
3723726.1
3712528.5
3701329.9
3690130.2
3678929.6
3667727.8
3656525.1
3645321.3
3634116.5
3622910.6
3611703.8
3600495.8
3589286.9
3578076.9
3566865.9
3555653.8
3544440.7
3533226.6
3522011.4
3510795.2
3499578
3488359.7
3477140.3
3465920
3454698.6
3443476.2
3432252.7
3421028.2
3409802.6
3398576
3387348.4
3376119.7
3364890
3353659.3
3342427.5
3331194.7
3319960.8
3308725.9
3297489.9
3286252.9
3275014.9
3263775.8
3252535.7
3241294.6
3230052.4
3218809.1
3207564.8
3196319.5
3185073.1
3173825.7
3162577.2
3151327.7
3140077.2
3128825.6
3117572.9
3106319.3
3095064.5
3083808.8
3072551.9
3061294.1
3050035.2
3038775.2
3027514.2
3016252.1
3004989
2993724.9
2982459.7
2971193.5
2959926.2
2948657.8
2937388.5
2926118
2914846.5
2903574
2892300.4
2881025.8
2869750.1
2858473.4
2847195.6
2835916.8
2824636.9
2813356
2802074
2790791
2779506.9
2768221.7
2756935.5
2745648.3
2734360
2723070.7
2711780.3
2700488.8
2689196.3
2677902.8
2666608.1
2655312.5
2644015.8
2632718
2621419.2
2610119.3
2598818.3
2587516.3
2576213.3
2564909.2
2553604
2542297.8
2530990.5
2519682.2
2508372.8
2497062.4
2485750.9
2474438.3
2463124.7
2451810
2440494.3
2429177.5
2417859.6
2406540.7
2395220.8
2383899.7
2372577.6
2361254.5
2349930.3
2338605
2327278.7
2315951.3
2304622.8
2293293.3
2281962.8
2270631.1
2259298.4
2247964.7
2236629.8
2225294
2213957
2202619
2191279.9
2179939.8
2168598.6
2157256.3
2145913
2134568.6
2123223.1
2111876.6
2100529
2089180.4
2077830.6
2066479.9
2055128
2043775.1
2032421.1
2021066.1
2009709.9
1998352.8
1986994.5
1975635.2
1964274.8
1952913.3
1941550.8
1930187.2
1918822.5
1907456.8
1896090
1884722.1
1873353.2
1861983.2
1850612.1
1839240
1827866.7
1816492.4
1805117.1
1793740.6
1782363.1
1770984.5
1759604.9
1748224.2
1736842.4
1725459.5
1714075.6
1702690.5
1691304.4
1679917.3
1668529
1657139.7
1645749.3
1634357.9
1622965.3
1611571.7
1600177.1
1588781.3
1577384.5
1565986.5
1554587.5
1543187.5
1531786.3
1520384.1
1508980.8
1497576.4
1486171
1474764.4
1463356.8
1451948.2
1440538.4
1429127.5
1417715.6
1406302.6
1394888.5
1383473.4
1372057.1
1360639.8
1349221.4
1337801.9
1326381.3
1314959.7
1303536.9
1292113.1
1280688.2
1269262.3
1257835.2
1246407.1
1234977.8
1223547.5
1212116.1
1200683.7
1189250.1
1177815.5
1166379.7
1154942.9
1143505
1132066
1120626
1109184.8
1097742.6
1086299.3
1074854.9
1063409.4
1051962.8
1040515.1
1029066.3
1017616.5
1006165.6
994713.54
983260.43
971806.23
960350.94
948894.57
937437.1
925978.55
914518.91
903058.17
891596.35
880133.43
868669.43
857204.33
845738.15
834270.87
822802.5
811333.04
799862.49
788390.84
776918.1
765444.27
753969.35
742493.33
731016.22
719538.02
708058.72
696578.33
685096.84
673614.26
662130.58
650645.81
639159.94
627672.98
616184.92
604695.77
593205.52
581714.17
570221.73
558728.19
547233.55
535737.81
524240.98
512743.05
501244.02
489743.89
478242.66
466740.34
455236.91
443732.39
432226.76
420720.04
409212.21
397703.29
386193.26
374682.13
363169.91
351656.58
340142.14
328626.61
317109.98
305592.24
294073.4
282553.46
271032.41
259510.26
247987.01
236462.65
224937.19
213410.62
201882.95
190354.17
178824.29
167293.29
155761.2
144227.97
132693.67
121158.18
109621.7
98083.855
86545.38
75004.837
63465.177
51920.543
40383.121
28828.318
17307.554
5714.5945
5833593.9
5701661
5645509.6
5602924.2
5579297
5564224.4
5553231.9
5544657.5
5536267.1
5527940
5519043.4
5509721
5499902.6
5489733.1
5479268
5468603.1
5457792.7
5446888.7
5435922.7
5424919.4
5413893.5
5402854.9
5391809.6
5380761
5369710.8
5358660
5347608.9
5336557.5
5325505.7
5314453.5
5303400.6
5292347.1
5281292.7
5270237.5
5259181.3
5248124.2
5237066.1
5226007
5214946.9
5203885.7
5192823.6
5181760.5
5170696.4
5159631.3
5148565.2
5137498
5126429.9
5115360.7
5104290.6
5093219.4
5082147.2
5071074.1
5059999.9
5048924.7
5037848.5
5026771.3
5015693.1
5004613.9
4993533.6
4982452.4
4971370.2
4960286.9
4949202.6
4938117.4
4927031.1
4915943.8
4904855.5
4893766.2
4882675.9
4871584.6
4860492.2
4849398.9
4838304.5
4827209.1
4816112.8
4805015.4
4793917
4782817.5
4771717.1
4760615.7
4749513.2
4738409.7
4727305.3
4716199.8
4705093.3
4693985.7
4682877.2
4671767.7
4660657.1
4649545.5
4638432.9
4627319.3
4616204.7
4605089.1
4593972.4
4582854.7
4571736
4560616.3
4549495.6
4538373.9
4527251.1
4516127.4
4505002.6
4493876.8
4482749.9
4471622.1
4460493.2
4449363.4
4438232.5
4427100.5
4415967.6
4404833.7
4393698.7
4382562.7
4371425.7
4360287.6
4349148.6
4338008.5
4326867.4
4315725.3
4304582.2
4293438
4282292.8
4271146.6
4259999.4
4248851.1
4237701.9
4226551.6
4215400.3
4204247.9
4193094.6
4181940.2
4170784.8
4159628.3
4148470.9
4137312.4
4126152.9
4114992.4
4103830.8
4092668.2
4081504.6
4070340
4059174.3
4048007.6
4036839.9
4025671.2
4014501.4
4003330.6
3992158.8
3980985.9
3969812
3958637.1
3947461.2
3936284.2
3925106.3
3913927.2
3902747.2
3891566.1
3880384
3869200.9
3858016.7
3846831.5
3835645.3
3824458
3813269.7
3802080.4
3790890
3779698.7
3768506.2
3757312.8
3746118.3
3734922.8
3723726.2
3712528.7
3701330.1
3690130.4
3678929.7
3667728
3656525.3
3645321.5
3634116.7
3622910.8
3611703.9
3600496
3589287.1
3578077.1
3566866.1
3555654
3544440.9
3533226.8
3522011.6
3510795.4
3499578.1
3488359.9
3477140.5
3465920.2
3454698.8
3443476.3
3432252.9
3421028.4
3409802.8
3398576.2
3387348.6
3376119.9
3364890.2
3353659.5
3342427.7
3331194.9
3319961
3308726.1
3297490.1
3286253.1
3275015.1
3263776
3252535.9
3241294.7
3230052.5
3218809.3
3207565
3196319.7
3185073.3
3173825.9
3162577.4
3151327.9
3140077.4
3128825.8
3117573.1
3106319.4
3095064.7
3083808.9
3072552.1
3061294.3
3050035.3
3038775.4
3027514.4
3016252.3
3004989.2
2993725.1
2982459.9
2971193.6
2959926.4
2948658
2937388.6
2926118.2
2914846.7
2903574.2
2892300.6
2881026
2869750.3
2858473.6
2847195.8
2835917
2824637.1
2813356.2
2802074.2
2790791.1
2779507.1
2768221.9
2756935.7
2745648.5
2734360.2
2723070.9
2711780.5
2700489
2689196.5
2677902.9
2666608.3
2655312.7
2644015.9
2632718.2
2621419.3
2610119.5
2598818.5
2587516.5
2576213.5
2564909.4
2553604.2
2542298
2530990.7
2519682.4
2508373
2497062.6
2485751.1
2474438.5
2463124.9
2451810.2
2440494.5
2429177.7
2417859.8
2406540.9
2395220.9
2383899.9
2372577.8
2361254.7
2349930.5
2338605.2
2327278.9
2315951.5
2304623
2293293.5
2281962.9
2270631.3
2259298.6
2247964.8
2236630
2225294.1
2213957.2
2202619.2
2191280.1
2179940
2168598.8
2157256.5
2145913.2
2134568.8
2123223.3
2111876.8
2100529.2
2089180.6
2077830.8
2066480
2055128.2
2043775.3
2032421.3
2021066.2
2009710.1
1998352.9
1986994.7
1975635.4
1964275
1952913.5
1941551
1930187.4
1918822.7
1907457
1896090.2
1884722.3
1873353.4
1861983.4
1850612.3
1839240.1
1827866.9
1816492.6
1805117.3
1793740.8
1782363.3
1770984.7
1759605.1
1748224.4
1736842.6
1725459.7
1714075.7
1702690.7
1691304.6
1679917.5
1668529.2
1657139.9
1645749.5
1634358.1
1622965.5
1611571.9
1600177.2
1588781.5
1577384.6
1565986.7
1554587.7
1543187.7
1531786.5
1520384.3
1508981
1497576.6
1486171.2
1474764.6
1463357
1451948.3
1440538.6
1429127.7
1417715.8
1406302.8
1394888.7
1383473.5
1372057.3
1360640
1349221.6
1337802.1
1326381.5
1314959.9
1303537.1
1292113.3
1280688.4
1269262.4
1257835.4
1246407.2
1234978
1223547.7
1212116.3
1200683.9
1189250.3
1177815.6
1166379.9
1154943.1
1143505.2
1132066.2
1120626.2
1109185
1097742.8
1086299.4
1074855
1063409.5
1051963
1040515.3
1029066.5
1017616.7
1006165.7
994713.72
983260.61
971806.42
960351.13
948894.75
937437.29
925978.73
914519.09
903058.36
891596.53
880133.62
868669.61
857204.52
845738.33
834271.05
822802.68
811333.22
799862.67
788391.02
776918.29
765444.46
753969.53
742493.51
731016.4
719538.2
708058.9
696578.51
685097.02
673614.44
662130.77
650646
639160.13
627673.17
616185.11
604695.95
593205.7
581714.36
570221.91
558728.37
547233.73
535738
524241.16
512743.23
501244.2
489744.07
478242.85
466740.52
455237.09
443732.57
432226.95
420720.22
409212.4
397703.47
386193.44
374682.32
363170.09
351656.76
340142.33
328626.8
317110.16
305592.42
294073.58
282553.64
271032.59
259510.44
247987.19
236462.83
224937.37
213410.81
201883.13
190354.36
178824.47
167293.48
155761.38
144228.16
132693.85
121158.37
109621.88
98084.042
86545.559
75005.021
63465.324
51920.726
40383.145
28828.552
17307.165
5715.0841
5821801.9
5693181.9
5638585.2
5598907.4
5576709.2
5562927.5
5552583.7
5544440
5536249
5528020.7
5519152.6
5509828.7
5499994
5489804.7
5479320.9
5468640.5
5457818
5446905.2
5435933.1
5424925.7
5413897.1
5402856.9
5391810.7
5380761.5
5369711.1
5358660.1
5347608.9
5336557.6
5325505.8
5314453.6
5303400.8
5292347.3
5281292.9
5270237.7
5259181.5
5248124.4
5237066.3
5226007.2
5214947.1
5203886
5192823.9
5181760.8
5170696.7
5159631.5
5148565.4
5137498.3
5126430.1
5115361
5104290.8
5093219.6
5082147.5
5071074.3
5060000.1
5048924.9
5037848.7
5026771.5
5015693.3
5004614.1
4993533.9
4982452.6
4971370.4
4960287.2
4949202.9
4938117.6
4927031.3
4915944.1
4904855.8
4893766.5
4882676.1
4871584.8
4860492.5
4849399.1
4838304.8
4827209.4
4816113
4805015.6
4793917.2
4782817.8
4771717.4
4760615.9
4749513.5
4738410
4727305.5
4716200
4705093.5
4693986
4682877.5
4671767.9
4660657.3
4649545.8
4638433.2
4627319.6
4616204.9
4605089.3
4593972.6
4582855
4571736.3
4560616.6
4549495.9
4538374.1
4527251.4
4516127.6
4505002.8
4493877
4482750.2
4471622.3
4460493.5
4449363.6
4438232.7
4427100.8
4415967.9
4404833.9
4393698.9
4382562.9
4371425.9
4360287.9
4349148.8
4338008.8
4326867.7
4315725.5
4304582.4
4293438.3
4282293.1
4271146.9
4259999.6
4248851.4
4237702.1
4226551.8
4215400.5
4204248.2
4193094.8
4181940.4
4170785
4159628.6
4148471.1
4137312.6
4126153.1
4114992.6
4103831
4092668.5
4081504.8
4070340.2
4059174.5
4048007.9
4036840.1
4025671.4
4014501.6
4003330.8
3992159
3980986.2
3969812.3
3958637.4
3947461.5
3936284.5
3925106.5
3913927.5
3902747.4
3891566.4
3880384.2
3869201.1
3858016.9
3846831.7
3835645.5
3824458.2
3813270
3802080.6
3790890.3
3779698.9
3768506.5
3757313
3746118.6
3734923
3723726.5
3712528.9
3701330.3
3690130.7
3678930
3667728.3
3656525.5
3645321.7
3634116.9
3622911.1
3611704.2
3600496.3
3589287.3
3578077.3
3566866.3
3555654.2
3544441.1
3533227
3522011.8
3510795.6
3499578.4
3488360.1
3477140.8
3465920.4
3454699
3443476.6
3432253.1
3421028.6
3409803.1
3398576.5
3387348.8
3376120.2
3364890.5
3353659.7
3342427.9
3331195.1
3319961.2
3308726.3
3297490.4
3286253.4
3275015.3
3263776.3
3252536.1
3241295
3230052.8
3218809.5
3207565.3
3196319.9
3185073.5
3173826.1
3162577.7
3151328.2
3140077.6
3128826
3117573.4
3106319.7
3095065
3083809.2
3072552.4
3061294.5
3050035.6
3038775.6
3027514.6
3016252.6
3004989.5
2993725.3
2982460.1
2971193.9
2959926.6
2948658.3
2937388.9
2926118.5
2914847
2903574.4
2892300.9
2881026.2
2869750.6
2858473.8
2847196
2835917.2
2824637.3
2813356.4
2802074.4
2790791.4
2779507.3
2768222.2
2756936
2745648.7
2734360.4
2723071.1
2711780.7
2700489.3
2689196.7
2677903.2
2666608.6
2655312.9
2644016.2
2632718.4
2621419.6
2610119.7
2598818.8
2587516.8
2576213.7
2564909.6
2553604.5
2542298.2
2530991
2519682.6
2508373.2
2497062.8
2485751.3
2474438.7
2463125.1
2451810.4
2440494.7
2429177.9
2417860.1
2406541.2
2395221.2
2383900.2
2372578.1
2361254.9
2349930.7
2338605.4
2327279.1
2315951.7
2304623.3
2293293.8
2281963.2
2270631.6
2259298.9
2247965.1
2236630.3
2225294.4
2213957.4
2202619.4
2191280.4
2179940.2
2168599
2157256.8
2145913.4
2134569
2123223.6
2111877
2100529.5
2089180.8
2077831.1
2066480.3
2055128.4
2043775.5
2032421.5
2021066.5
2009710.4
1998353.2
1986994.9
1975635.6
1964275.2
1952913.8
1941551.2
1930187.6
1918823
1907457.2
1896090.4
1884722.6
1873353.6
1861983.6
1850612.5
1839240.4
1827867.2
1816492.9
1805117.5
1793741.1
1782363.6
1770985
1759605.3
1748224.6
1736842.8
1725459.9
1714076
1702691
1691304.9
1679917.7
1668529.5
1657140.2
1645749.8
1634358.3
1622965.8
1611572.2
1600177.5
1588781.7
1577384.9
1565987
1554588
1543187.9
1531786.8
1520384.5
1508981.2
1497576.9
1486171.4
1474764.9
1463357.3
1451948.6
1440538.8
1429128
1417716
1406303
1394889
1383473.8
1372057.5
1360640.2
1349221.8
1337802.3
1326381.8
1314960.1
1303537.4
1292113.6
1280688.7
1269262.7
1257835.6
1246407.5
1234978.3
1223548
1212116.6
1200684.1
1189250.5
1177815.9
1166380.2
1154943.4
1143505.5
1132066.5
1120626.4
1109185.3
1097743
1086299.7
1074855.3
1063409.8
1051963.2
1040515.5
1029066.8
1017616.9
1006166
994713.97
983260.86
971806.66
960351.38
948895
937437.54
925978.98
914519.34
903058.6
891596.78
880133.87
868669.86
857204.77
845738.58
834271.3
822802.93
811333.47
799862.92
788391.27
776918.53
765444.7
753969.78
742493.76
731016.65
719538.45
708059.15
696578.76
685097.27
673614.69
662131.01
650646.24
639160.38
627673.41
616185.36
604696.2
593205.95
581714.6
570222.16
558728.62
547233.98
535738.25
524241.41
512743.48
501244.45
489744.32
478243.09
466740.77
455237.34
443732.82
432227.19
420720.47
409212.64
397703.72
386193.69
374682.57
363170.34
351657.01
340142.58
328627.04
317110.41
305592.67
294073.83
282553.89
271032.84
259510.69
247987.44
236463.08
224937.62
213411.05
201883.38
190354.61
178824.72
167293.73
155761.63
144228.41
132694.1
121158.62
109622.13
98084.293
86545.8
75005.269
63465.524
51920.97
40383.189
28828.854
17306.67
5715.7832
5806666.7
5682506.5
5629928.5
5593938.1
5573535.4
5561354.7
5551809.2
5544191.2
5536240.7
5528129.7
5519293.3
5509965.2
5500108.8
5489894.2
5479386.7
5468686.8
5457849.3
5446925.6
5435945.9
5424933.4
5413901.5
5402859.4
5391811.9
5380762.1
5369711.3
5358660.2
5347609
5336557.7
5325506
5314453.8
5303401
5292347.5
5281293.2
5270238
5259181.8
5248124.7
5237066.6
5226007.5
5214947.4
5203886.3
5192824.2
5181761.1
5170697
5159631.8
5148565.7
5137498.6
5126430.4
5115361.3
5104291.1
5093220
5082147.8
5071074.6
5060000.4
5048925.2
5037849
5026771.8
5015693.6
5004614.4
4993534.2
4982453
4971370.7
4960287.5
4949203.2
4938117.9
4927031.7
4915944.4
4904856.1
4893766.8
4882676.4
4871585.1
4860492.8
4849399.4
4838305.1
4827209.7
4816113.3
4805015.9
4793917.5
4782818.1
4771717.7
4760616.2
4749513.8
4738410.3
4727305.8
4716200.3
4705093.8
4693986.3
4682877.8
4671768.2
4660657.7
4649546.1
4638433.5
4627319.9
4616205.2
4605089.6
4593973
4582855.3
4571736.6
4560616.9
4549496.2
4538374.4
4527251.7
4516127.9
4505003.1
4493877.3
4482750.5
4471622.7
4460493.8
4449363.9
4438233
4427101.1
4415968.2
4404834.2
4393699.2
4382563.2
4371426.2
4360288.2
4349149.1
4338009.1
4326868
4315725.9
4304582.7
4293438.6
4282293.4
4271147.2
4260000
4248851.7
4237702.4
4226552.1
4215400.8
4204248.5
4193095.1
4181940.7
4170785.3
4159628.9
4148471.4
4137312.9
4126153.4
4114992.9
4103831.3
4092668.8
4081505.2
4070340.5
4059174.9
4048008.2
4036840.5
4025671.7
4014501.9
4003331.2
3992159.3
3980986.5
3969812.6
3958637.7
3947461.8
3936284.8
3925106.8
3913927.8
3902747.7
3891566.7
3880384.6
3869201.4
3858017.2
3846832
3835645.8
3824458.6
3813270.3
3802080.9
3790890.6
3779699.2
3768506.8
3757313.3
3746118.9
3734923.4
3723726.8
3712529.2
3701330.6
3690131
3678930.3
3667728.6
3656525.8
3645322.1
3634117.2
3622911.4
3611704.5
3600496.6
3589287.6
3578077.6
3566866.6
3555654.6
3544441.5
3533227.3
3522012.1
3510795.9
3499578.7
3488360.4
3477141.1
3465920.7
3454699.3
3443476.9
3432253.4
3421028.9
3409803.4
3398576.8
3387349.1
3376120.5
3364890.8
3353660
3342428.2
3331195.4
3319961.5
3308726.6
3297490.7
3286253.7
3275015.7
3263776.6
3252536.5
3241295.3
3230053.1
3218809.8
3207565.6
3196320.2
3185073.9
3173826.4
3162578
3151328.5
3140077.9
3128826.3
3117573.7
3106320
3095065.3
3083809.5
3072552.7
3061294.8
3050035.9
3038775.9
3027514.9
3016252.9
3004989.8
2993725.6
2982460.4
2971194.2
2959926.9
2948658.6
2937389.2
2926118.8
2914847.3
2903574.7
2892301.2
2881026.5
2869750.9
2858474.1
2847196.4
2835917.5
2824637.6
2813356.7
2802074.7
2790791.7
2779507.6
2768222.5
2756936.3
2745649
2734360.8
2723071.4
2711781
2700489.6
2689197.1
2677903.5
2666608.9
2655313.2
2644016.5
2632718.7
2621419.9
2610120
2598819.1
2587517.1
2576214
2564909.9
2553604.8
2542298.5
2530991.3
2519682.9
2508373.6
2497063.1
2485751.6
2474439
2463125.4
2451810.8
2440495
2429178.2
2417860.4
2406541.5
2395221.5
2383900.5
2372578.4
2361255.2
2349931
2338605.8
2327279.4
2315952
2304623.6
2293294.1
2281963.5
2270631.9
2259299.2
2247965.4
2236630.6
2225294.7
2213957.8
2202619.7
2191280.7
2179940.5
2168599.3
2157257.1
2145913.7
2134569.3
2123223.9
2111877.4
2100529.8
2089181.1
2077831.4
2066480.6
2055128.8
2043775.8
2032421.8
2021066.8
2009710.7
1998353.5
1986995.2
1975635.9
1964275.5
1952914.1
1941551.5
1930187.9
1918823.3
1907457.6
1896090.8
1884722.9
1873353.9
1861983.9
1850612.8
1839240.7
1827867.5
1816493.2
1805117.8
1793741.4
1782363.9
1770985.3
1759605.6
1748224.9
1736843.1
1725460.2
1714076.3
1702691.3
1691305.2
1679918
1668529.8
1657140.5
1645750.1
1634358.6
1622966.1
1611572.5
1600177.8
1588782
1577385.2
1565987.3
1554588.3
1543188.2
1531787.1
1520384.9
1508981.6
1497577.2
1486171.7
1474765.2
1463357.6
1451948.9
1440539.1
1429128.3
1417716.4
1406303.3
1394889.3
1383474.1
1372057.9
1360640.5
1349222.1
1337802.6
1326382.1
1314960.4
1303537.7
1292113.9
1280689
1269263
1257835.9
1246407.8
1234978.6
1223548.3
1212116.9
1200684.4
1189250.8
1177816.2
1166380.5
1154943.7
1143505.8
1132066.8
1120626.7
1109185.6
1097743.3
1086300
1074855.6
1063410.1
1051963.5
1040515.8
1029067.1
1017617.2
1006166.3
994714.28
983261.17
971806.97
960351.69
948895.31
937437.85
925979.29
914519.65
903058.91
891597.09
880134.18
868670.17
857205.08
845738.89
834271.61
822803.24
811333.78
799863.23
788391.58
776918.84
765445.01
753970.09
742494.07
731016.96
719538.76
708059.46
696579.07
685097.58
673615
662131.33
650646.55
639160.69
627673.72
616185.67
604696.51
593206.26
581714.92
570222.47
558728.93
547234.29
535738.56
524241.72
512743.79
501244.76
489744.63
478243.41
466741.08
455237.65
443733.13
432227.5
420720.78
409212.95
397704.03
386194
374682.88
363170.65
351657.32
340142.89
328627.35
317110.72
305592.98
294074.14
282554.2
271033.15
259511
247987.75
236463.39
224937.93
213411.37
201883.69
190354.92
178825.03
167294.04
155761.94