/*--------------------------------*- C++ -*----------------------------------*\
  =========                 |
  \\      /  F ield         | OpenFOAM: The Open Source CFD Toolbox
   \\    /   O peration     | Website:  https://openfoam.org
    \\  /    A nd           | Version:  6
     \\/     M anipulation  |
\*---------------------------------------------------------------------------*/
FoamFile
{
    version     2.0;
    format      ascii;
    class       volScalarField;
    location    "1529";
    object      p;
}
// * * * * * * * * * * * * * * * * * * * * * * * * * * * * * * * * * * * * * //

dimensions      [0 2 -2 0 0 0 0];

internalField   nonuniform List<scalar> 
2500
(
7801480.5
7674173.5
7621018.3
7591185.5
7560318.7
7534202.2
7504831.5
7476051.5
7446119.1
7416256.1
7386099.4
7355962.3
7325760.6
7295565.1
7265353.9
7235141.8
7204922.7
7174699.6
7144471
7114237.4
7083998.5
7053754.3
7023504.9
6993250.2
6962990.2
6932724.9
6902454.3
6872178.4
6841897.2
6811610.7
6781319
6751021.9
6720719.5
6690411.8
6660098.8
6629780.5
6599456.9
6569127.9
6538793.7
6508454.1
6478109.2
6447758.9
6417403.4
6387042.5
6356676.3
6326304.7
6295927.8
6265545.6
6235158
6204765.1
6174366.9
6143963.3
6113554.3
6083140
6052720.4
6022295.4
5991865
5961429.3
5930988.2
5900541.7
5870089.9
5839632.7
5809170.1
5778702.2
5748228.9
5717750.2
5687266.1
5656776.7
5626281.8
5595781.6
5565276
5534765
5504248.6
5473726.8
5443199.6
5412667
5382129
5351585.6
5321036.8
5290482.6
5259923
5229357.9
5198787.5
5168211.6
5137630.3
5107043.6
5076451.4
5045853.9
5015250.9
4984642.4
4954028.6
4923409.3
4892784.5
4862154.3
4831518.7
4800877.6
4770231.1
4739579.1
4708921.7
4678258.8
4647590.5
4616916.7
4586237.5
4555552.7
4524862.6
4494166.9
4463465.8
4432759.2
4402047.1
4371329.6
4340606.5
4309878
4279144
4248404.5
4217659.6
4186909.1
4156153.2
4125391.7
4094624.8
4063852.3
4033074.4
4002290.9
3971501.9
3940707.5
3909907.5
3879102
3848291
3817474.4
3786652.4
3755824.8
3724991.7
3694153
3663308.9
3632459.2
3601603.9
3570743.2
3539876.8
3509005
3478127.6
3447244.7
3416356.2
3385462.1
3354562.5
3323657.4
3292746.6
3261830.4
3230908.5
3199981.1
3169048.1
3138109.6
3107165.5
3076215.8
3045260.5
3014299.7
2983333.3
2952361.2
2921383.6
2890400.4
2859411.7
2828417.3
2797417.3
2766411.7
2735400.6
2704383.8
2673361.4
2642333.4
2611299.8
2580260.6
2549215.8
2518165.3
2487109.3
2456047.6
2424980.3
2393907.3
2362828.8
2331744.6
2300654.7
2269559.3
2238458.1
2207351.4
2176239
2145120.9
2113997.3
2082867.9
2051732.9
2020592.3
1989445.9
1958294
1927136.3
1895973
1864804.1
1833629.4
1802449.1
1771263.1
1740071.5
1708874.1
1677671.1
1646462.4
1615248
1584027.9
1552802.1
1521570.6
1490333.4
1459090.6
1427842
1396587.7
1365327.7
1334062
1302790.6
1271513.5
1240230.7
1208942.1
1177647.8
1146347.8
1115042.1
1083730.6
1052413.4
1021090.5
989761.84
958427.44
927087.3
895741.41
864389.78
833032.4
801669.27
770300.38
738925.74
707545.35
676159.19
644767.26
613369.57
581966.12
550556.89
519141.88
487721.11
456294.55
424862.21
393424.09
361980.2
330530.47
299075.05
267613.63
236146.81
204673.36
173195.76
141708.9
110223.5
78717.099
47240.091
15681.101
7790896.7
7671384.1
7618937.3
7590580.8
7560233.4
7534186.2
7504893.6
7476073.5
7446144.4
7416263.7
7386105.8
7355964
7325762
7295565.5
7265354.4
7235142.1
7204923
7174700
7144471.3
7114237.8
7083998.8
7053754.7
7023505.3
6993250.5
6962990.5
6932725.2
6902454.7
6872178.8
6841897.6
6811611.1
6781319.3
6751022.3
6720719.9
6690412.2
6660099.2
6629780.9
6599457.2
6569128.3
6538794
6508454.4
6478109.5
6447759.3
6417403.7
6387042.9
6356676.6
6326305.1
6295928.2
6265546
6235158.4
6204765.5
6174367.2
6143963.6
6113554.7
6083140.4
6052720.7
6022295.7
5991865.4
5961429.6
5930988.5
5900542.1
5870090.3
5839633.1
5809170.5
5778702.6
5748229.3
5717750.6
5687266.5
5656777
5626282.2
5595782
5565276.4
5534765.4
5504249
5473727.2
5443200
5412667.4
5382129.4
5351586
5321037.2
5290483
5259923.3
5229358.3
5198787.8
5168212
5137630.7
5107043.9
5076451.8
5045854.2
5015251.2
4984642.8
4954028.9
4923409.6
4892784.9
4862154.7
4831519.1
4800878
4770231.5
4739579.5
4708922.1
4678259.2
4647590.9
4616917.1
4586237.8
4555553.1
4524862.9
4494167.3
4463466.1
4432759.5
4402047.5
4371329.9
4340606.9
4309878.4
4279144.4
4248404.9
4217659.9
4186909.5
4156153.5
4125392.1
4094625.1
4063852.7
4033074.7
4002291.3
3971502.3
3940707.8
3909907.8
3879102.3
3848291.3
3817474.8
3786652.7
3755825.1
3724992
3694153.4
3663309.2
3632459.5
3601604.3
3570743.5
3539877.2
3509005.4
3478128
3447245
3416356.5
3385462.5
3354562.9
3323657.7
3292747
3261830.7
3230908.9
3199981.5
3169048.5
3138110
3107165.9
3076216.2
3045260.9
3014300.1
2983333.6
2952361.6
2921384
2890400.8
2859412
2828417.7
2797417.7
2766412.1
2735400.9
2704384.2
2673361.8
2642333.8
2611300.2
2580261
2549216.2
2518165.7
2487109.6
2456048
2424980.6
2393907.7
2362829.1
2331744.9
2300655.1
2269559.6
2238458.5
2207351.8
2176239.4
2145121.3
2113997.6
2082868.3
2051733.3
2020592.6
1989446.3
1958294.3
1927136.7
1895973.4
1864804.4
1833629.8
1802449.5
1771263.5
1740071.8
1708874.5
1677671.5
1646462.7
1615248.3
1584028.3
1552802.5
1521571
1490333.8
1459090.9
1427842.4
1396588.1
1365328.1
1334062.4
1302791
1271513.9
1240231
1208942.5
1177648.2
1146348.2
1115042.4
1083731
1052413.8
1021090.9
989762.21
958427.81
927087.67
895741.78
864390.15
833032.77
801669.64
770300.76
738926.12
707545.72
676159.56
644767.63
613369.94
581966.49
550557.26
519142.26
487721.48
456294.92
424862.59
393424.46
361980.57
330530.84
299075.41
267614.01
236147.17
204673.76
173196.07
141709.39
110223.57
78718.031
47238.604
15684.036
7772810.8
7665221.4
7615531.8
7589783.6
7560063.2
7534245.6
7504982.7
7476131.2
7446181.3
7416280.7
7386114.7
7355967.5
7325763.8
7295566.4
7265355.1
7235142.7
7204923.7
7174700.6
7144472
7114238.4
7083999.5
7053755.3
7023505.9
6993251.2
6962991.2
6932725.9
6902455.3
6872179.4
6841898.2
6811611.8
6781320
6751022.9
6720720.5
6690412.8
6660099.8
6629781.5
6599457.9
6569128.9
6538794.7
6508455.1
6478110.2
6447759.9
6417404.4
6387043.5
6356677.3
6326305.7
6295928.8
6265546.6
6235159
6204766.1
6174367.9
6143964.3
6113555.3
6083141
6052721.4
6022296.4
5991866
5961430.3
5930989.2
5900542.7
5870090.9
5839633.7
5809171.1
5778703.2
5748229.9
5717751.2
5687267.1
5656777.7
5626282.9
5595782.6
5565277
5534766
5504249.6
5473727.8
5443200.6
5412668
5382130
5351586.6
5321037.8
5290483.6
5259924
5229358.9
5198788.5
5168212.6
5137631.3
5107044.6
5076452.4
5045854.9
5015251.9
4984643.4
4954029.6
4923410.3
4892785.5
4862155.3
4831519.7
4800878.6
4770232.1
4739580.2
4708922.7
4678259.9
4647591.5
4616917.7
4586238.5
4555553.8
4524863.6
4494167.9
4463466.8
4432760.2
4402048.1
4371330.6
4340607.5
4309879
4279145
4248405.6
4217660.6
4186910.1
4156154.2
4125392.7
4094625.8
4063853.3
4033075.4
4002291.9
3971502.9
3940708.5
3909908.5
3879103
3848292
3817475.4
3786653.4
3755825.8
3724992.7
3694154
3663309.9
3632460.2
3601604.9
3570744.2
3539877.9
3509006
3478128.6
3447245.7
3416357.2
3385463.1
3354563.5
3323658.4
3292747.7
3261831.4
3230909.5
3199982.1
3169049.2
3138110.6
3107166.5
3076216.8
3045261.5
3014300.7
2983334.3
2952362.3
2921384.7
2890401.5
2859412.7
2828418.3
2797418.3
2766412.8
2735401.6
2704384.8
2673362.4
2642334.4
2611300.8
2580261.6
2549216.8
2518166.4
2487110.3
2456048.6
2424981.3
2393908.3
2362829.8
2331745.6
2300655.7
2269560.3
2238459.2
2207352.4
2176240
2145122
2113998.3
2082868.9
2051733.9
2020593.3
1989447
1958295
1927137.4
1895974.1
1864805.1
1833630.4
1802450.1
1771264.1
1740072.5
1708875.1
1677672.1
1646463.4
1615249
1584028.9
1552803.1
1521571.6
1490334.5
1459091.6
1427843
1396588.7
1365328.7
1334063
1302791.6
1271514.5
1240231.7
1208943.1
1177648.8
1146348.8
1115043.1
1083731.6
1052414.4
1021091.5
989762.86
958428.45
927088.31
895742.43
864390.8
833033.42
801670.29
770301.4
738926.76
707546.36
676160.2
644768.28
613370.59
581967.13
550557.9
519142.9
487722.12
456295.57
424863.23
393425.11
361981.21
330531.49
299076.06
267614.66
236147.81
204674.42
173196.69
141710.08
110224.03
78718.888
47237.955
15685.873
7745002.9
7655776.9
7610628.5
7588722.4
7559848.1
7534371
7505117.6
7476223.4
7446234.8
7416306.7
7386127.3
7355972.9
7325766.4
7295567.8
7265356.1
7235143.6
7204924.6
7174701.5
7144472.9
7114239.4
7084000.4
7053756.3
7023506.9
6993252.2
6962992.2
6932726.9
6902456.3
6872180.4
6841899.2
6811612.7
6781321
6751023.9
6720721.5
6690413.8
6660100.8
6629782.5
6599458.8
6569129.9
6538795.6
6508456.1
6478111.2
6447760.9
6417405.4
6387044.5
6356678.3
6326306.7
6295929.8
6265547.6
6235160
6204767.1
6174368.9
6143965.3
6113556.3
6083142
6052722.4
6022297.3
5991867
5961431.2
5930990.2
5900543.7
5870091.9
5839634.7
5809172.1
5778704.2
5748230.9
5717752.2
5687268.1
5656778.7
5626283.8
5595783.6
5565278
5534767
5504250.6
5473728.8
5443201.6
5412669
5382131
5351587.6
5321038.8
5290484.6
5259925
5229359.9
5198789.5
5168213.6
5137632.3
5107045.6
5076453.4
5045855.8
5015252.8
4984644.4
4954030.5
4923411.2
4892786.5
4862156.3
4831520.7
4800879.6
4770233.1
4739581.1
4708923.7
4678260.8
4647592.5
4616918.7
4586239.4
4555554.7
4524864.5
4494168.9
4463467.8
4432761.2
4402049.1
4371331.5
4340608.5
4309880
4279146
4248406.5
4217661.6
4186911.1
4156155.1
4125393.7
4094626.7
4063854.3
4033076.3
4002292.9
3971503.9
3940709.4
3909909.5
3879104
3848292.9
3817476.4
3786654.3
3755826.8
3724993.7
3694155
3663310.9
3632461.2
3601605.9
3570745.1
3539878.8
3509007
3478129.6
3447246.6
3416358.1
3385464.1
3354564.5
3323659.3
3292748.6
3261832.4
3230910.5
3199983.1
3169050.1
3138111.6
3107167.5
3076217.8
3045262.5
3014301.7
2983335.2
2952363.2
2921385.6
2890402.4
2859413.7
2828419.3
2797419.3
2766413.7
2735402.6
2704385.8
2673363.4
2642335.4
2611301.8
2580262.6
2549217.8
2518167.3
2487111.3
2456049.6
2424982.3
2393909.3
2362830.8
2331746.6
2300656.7
2269561.2
2238460.1
2207353.4
2176241
2145122.9
2113999.2
2082869.9
2051734.9
2020594.2
1989447.9
1958296
1927138.3
1895975
1864806.1
1833631.4
1802451.1
1771265.1
1740073.5
1708876.1
1677673.1
1646464.4
1615250
1584029.9
1552804.1
1521572.6
1490335.4
1459092.6
1427844
1396589.7
1365329.7
1334064
1302792.6
1271515.5
1240232.6
1208944.1
1177649.8
1146349.8
1115044.1
1083732.6
1052415.4
1021092.5
989763.83
958429.43
927089.29
895743.4
864391.77
833034.39
801671.26
770302.38
738927.74
707547.34
676161.18
644769.25
613371.56
581968.11
550558.88
519143.88
487723.1
456296.54
424864.21
393426.08
361982.19
330532.47
299077.03
267615.63
236148.78
204675.4
173197.65
141711.08
110224.83
78719.998
47237.485
15687.955
7706490.3
7643450.4
7604445.7
7587482.6
7559657
7534571.5
7505308
7476348.3
7446305.3
7416340.6
7386143.4
7355979.6
7325769.6
7295569.5
7265357.4
7235144.8
7204925.8
7174702.8
7144474.2
7114240.7
7084001.8
7053757.6
7023508.2
6993253.5
6962993.5
6932728.2
6902457.6
6872181.7
6841900.5
6811614
6781322.3
6751025.2
6720722.8
6690415.1
6660102.1
6629783.8
6599460.2
6569131.2
6538796.9
6508457.4
6478112.5
6447762.2
6417406.7
6387045.8
6356679.6
6326308
6295931.1
6265548.9
6235161.3
6204768.4
6174370.2
6143966.6
6113557.6
6083143.3
6052723.7
6022298.6
5991868.3
5961432.6
5930991.5
5900545
5870093.2
5839636
5809173.4
5778705.5
5748232.2
5717753.5
5687269.4
5656780
5626285.1
5595784.9
5565279.3
5534768.3
5504251.9
5473730.1
5443202.9
5412670.3
5382132.3
5351588.9
5321040.1
5290485.9
5259926.3
5229361.2
5198790.8
5168214.9
5137633.6
5107046.9
5076454.7
5045857.2
5015254.2
4984645.7
4954031.9
4923412.5
4892787.8
4862157.6
4831522
4800880.9
4770234.4
4739582.4
4708925
4678262.1
4647593.8
4616920
4586240.8
4555556
4524865.8
4494170.2
4463469.1
4432762.5
4402050.4
4371332.9
4340609.8
4309881.3
4279147.3
4248407.8
4217662.9
4186912.4
4156156.5
4125395
4094628.1
4063855.6
4033077.6
4002294.2
3971505.2
3940710.8
3909910.8
3879105.3
3848294.2
3817477.7
3786655.7
3755828.1
3724995
3694156.3
3663312.2
3632462.5
3601607.2
3570746.5
3539880.1
3509008.3
3478130.9
3447247.9
3416359.5
3385465.4
3354565.8
3323660.7
3292749.9
3261833.7
3230911.8
3199984.4
3169051.4
3138112.9
3107168.8
3076219.1
3045263.8
3014303
2983336.5
2952364.5
2921386.9
2890403.7
2859415
2828420.6
2797420.6
2766415
2735403.9
2704387.1
2673364.7
2642336.7
2611303.1
2580263.9
2549219.1
2518168.6
2487112.6
2456050.9
2424983.6
2393910.6
2362832.1
2331747.9
2300658
2269562.6
2238461.4
2207354.7
2176242.3
2145124.2
2114000.6
2082871.2
2051736.2
2020595.6
1989449.2
1958297.3
1927139.6
1895976.3
1864807.4
1833632.7
1802452.4
1771266.4
1740074.8
1708877.4
1677674.4
1646465.7
1615251.3
1584031.2
1552805.4
1521573.9
1490336.7
1459093.9
1427845.3
1396591
1365331
1334065.3
1302793.9
1271516.8
1240234
1208945.4
1177651.1
1146351.1
1115045.4
1083733.9
1052416.7
1021093.8
989765.14
958430.74
927090.6
895744.71
864393.08
833035.7
801672.57
770303.69
738929.04
707548.65
676162.49
644770.56
613372.87
581969.42
550560.19
519145.19
487724.41
456297.85
424865.51
393427.39
361983.49
330533.78
299078.34
267616.95
236150.09
204676.73
173198.94
141712.43
110225.93
78721.471
47236.963
15690.789
7656368.9
7628642.3
7597369
7586230.5
7559570.7
7534869.9
7505560.1
7476505.3
7446391.6
7416381.1
7386162.2
7355987.4
7325773.4
7295571.4
7265359
7235146.3
7204927.3
7174704.3
7144475.8
7114242.3
7084003.4
7053759.2
7023509.8
6993255.1
6962995.1
6932729.8
6902459.2
6872183.3
6841902.1
6811615.7
6781323.9
6751026.8
6720724.4
6690416.7
6660103.7
6629785.4
6599461.8
6569132.8
6538798.6
6508459
6478114.1
6447763.9
6417408.3
6387047.4
6356681.2
6326309.6
6295932.7
6265550.5
6235163
6204770
6174371.8
6143968.2
6113559.2
6083144.9
6052725.3
6022300.3
5991869.9
5961434.2
5930993.1
5900546.6
5870094.8
5839637.6
5809175.1
5778707.1
5748233.8
5717755.1
5687271
5656781.6
5626286.8
5595786.5
5565280.9
5534769.9
5504253.5
5473731.7
5443204.5
5412671.9
5382133.9
5351590.5
5321041.7
5290487.5
5259927.9
5229362.9
5198792.4
5168216.5
5137635.2
5107048.5
5076456.4
5045858.8
5015255.8
4984647.3
4954033.5
4923414.2
4892789.4
4862159.3
4831523.6
4800882.6
4770236
4739584.1
4708926.6
4678263.8
4647595.4
4616921.6
4586242.4
4555557.7
4524867.5
4494171.8
4463470.7
4432764.1
4402052
4371334.5
4340611.5
4309882.9
4279148.9
4248409.5
4217664.5
4186914
4156158.1
4125396.6
4094629.7
4063857.2
4033079.3
4002295.8
3971506.9
3940712.4
3909912.4
3879106.9
3848295.9
3817479.3
3786657.3
3755829.7
3724996.6
3694158
3663313.8
3632464.1
3601608.9
3570748.1
3539881.8
3509009.9
3478132.5
3447249.6
3416361.1
3385467
3354567.4
3323662.3
3292751.6
3261835.3
3230913.5
3199986
3169053.1
3138114.5
3107170.4
3076220.7
3045265.5
3014304.6
2983338.2
2952366.2
2921388.6
2890405.4
2859416.6
2828422.2
2797422.2
2766416.7
2735405.5
2704388.7
2673366.3
2642338.4
2611304.8
2580265.5
2549220.7
2518170.3
2487114.2
2456052.5
2424985.2
2393912.3
2362833.7
2331749.5
2300659.7
2269564.2
2238463.1
2207356.3
2176243.9
2145125.9
2114002.2
2082872.8
2051737.8
2020597.2
1989450.9
1958298.9
1927141.3
1895978
1864809
1833634.4
1802454
1771268.1
1740076.4
1708879
1677676
1646467.3
1615252.9
1584032.8
1552807
1521575.5
1490338.4
1459095.5
1427846.9
1396592.6
1365332.7
1334067
1302795.5
1271518.4
1240235.6
1208947
1177652.7
1146352.7
1115047
1083735.5
1052418.4
1021095.4
989766.77
958432.37
927092.23
895746.34
864394.71
833037.33
801674.2
770305.32
738930.67
707550.28
676164.12
644772.19
613374.5
581971.05
550561.82
519146.82
487726.04
456299.48
424867.14
393429.02
361985.13
330535.41
299079.97
267618.58
236151.72
204678.37
173200.56
141714.11
110227.33
78723.299
47236.447
15694.363
7592686.8
7611805.4
7589934.6
7585178.3
7559689.6
7535294.8
7505881.3
7476693.9
7446491.8
7416426.8
7386183
7355995.8
7325777.4
7295573.6
7265360.8
7235148
7204929.2
7174706.2
7144477.7
7114244.2
7084005.3
7053761.2
7023511.8
6993257
6962997
6932731.7
6902461.1
6872185.3
6841904.1
6811617.6
6781325.8
6751028.8
6720726.4
6690418.7
6660105.7
6629787.4
6599463.7
6569134.8
6538800.5
6508460.9
6478116
6447765.8
6417410.2
6387049.4
6356683.1
6326311.6
6295934.7
6265552.5
6235164.9
6204772
6174373.7
6143970.1
6113561.2
6083146.9
6052727.2
6022302.2
5991871.9
5961436.1
5930995
5900548.6
5870096.8
5839639.6
5809177
5778709.1
5748235.8
5717757.1
5687273
5656783.5
5626288.7
5595788.5
5565282.9
5534771.9
5504255.5
5473733.7
5443206.5
5412673.9
5382135.9
5351592.5
5321043.7
5290489.5
5259929.8
5229364.8
5198794.3
5168218.5
5137637.2
5107050.4
5076458.3
5045860.7
5015257.7
4984649.3
4954035.4
4923416.1
4892791.4
4862161.2
4831525.6
4800884.5
4770238
4739586
4708928.6
4678265.7
4647597.4
4616923.6
4586244.3
4555559.6
4524869.4
4494173.8
4463472.6
4432766
4402054
4371336.4
4340613.4
4309884.9
4279150.9
4248411.4
4217666.4
4186916
4156160
4125398.6
4094631.6
4063859.2
4033081.2
4002297.8
3971508.8
3940714.3
3909914.3
3879108.8
3848297.8
3817481.3
3786659.2
3755831.6
3724998.5
3694159.9
3663315.7
3632466
3601610.8
3570750
3539883.7
3509011.9
3478134.5
3447251.5
3416363
3385469
3354569.4
3323664.2
3292753.5
3261837.2
3230915.4
3199988
3169055
3138116.5
3107172.4
3076222.7
3045267.4
3014306.6
2983340.1
2952368.1
2921390.5
2890407.3
2859418.5
2828424.2
2797424.2
2766418.6
2735407.4
2704390.7
2673368.3
2642340.3
2611306.7
2580267.5
2549222.7
2518172.2
2487116.2
2456054.5
2424987.1
2393914.2
2362835.6
2331751.4
2300661.6
2269566.1
2238465
2207358.3
2176245.9
2145127.8
2114004.1
2082874.8
2051739.8
2020599.1
1989452.8
1958300.9
1927143.2
1895979.9
1864810.9
1833636.3
1802456
1771270
1740078.3
1708881
1677678
1646469.2
1615254.8
1584034.8
1552809
1521577.5
1490340.3
1459097.4
1427848.9
1396594.6
1365334.6
1334068.9
1302797.5
1271520.4
1240237.5
1208949
1177654.7
1146354.7
1115049
1083737.5
1052420.3
1021097.4
989768.72
958434.32
927094.18
895748.29
864396.66
833039.28
801676.15
770307.26
738932.62
707552.23
676166.06
644774.14
613376.45
581973
550563.77
519148.76
487727.99
456301.43
424869.09
393430.97
361987.07
330537.36
299081.92
267620.54
236153.67
204680.34
173202.49
141716.12
110229.04
78725.472
47236.05
15698.654
7509439.1
7593436.1
7582905.7
7584641.2
7560165
7535899.1
7506289.8
7476918.3
7446606.1
7416477
7386205.1
7356004.4
7325781.4
7295576
7265362.9
7235150.1
7204931.3
7174708.4
7144480
7114246.5
7084007.6
7053763.5
7023514.1
6993259.4
6962999.4
6932734.1
6902463.5
6872187.6
6841906.4
6811619.9
6781328.2
6751031.1
6720728.7
6690421
6660108
6629789.7
6599466.1
6569137.1
6538802.8
6508463.3
6478118.4
6447768.1
6417412.6
6387051.7
6356685.5
6326313.9
6295937
6265554.8
6235167.2
6204774.3
6174376.1
6143972.5
6113563.5
6083149.2
6052729.6
6022304.5
5991874.2
5961438.4
5930997.4
5900550.9
5870099.1
5839641.9
5809179.3
5778711.4
5748238.1
5717759.4
5687275.3
5656785.9
5626291
5595790.8
5565285.2
5534774.2
5504257.8
5473736
5443208.8
5412676.2
5382138.2
5351594.8
5321046
5290491.8
5259932.2
5229367.1
5198796.7
5168220.8
5137639.5
5107052.8
5076460.6
5045863.1
5015260.1
4984651.6
4954037.8
4923418.4
4892793.7
4862163.5
4831527.9
4800886.8
4770240.3
4739588.3
4708930.9
4678268
4647599.7
4616925.9
4586246.7
4555561.9
4524871.7
4494176.1
4463475
4432768.4
4402056.3
4371338.8
4340615.7
4309887.2
4279153.2
4248413.7
4217668.8
4186918.3
4156162.4
4125400.9
4094634
4063861.5
4033083.6
4002300.1
3971511.1
3940716.7
3909916.7
3879111.2
3848300.1
3817483.6
3786661.6
3755834
3725000.9
3694162.2
3663318.1
3632468.4
3601613.1
3570752.4
3539886
3509014.2
3478136.8
3447253.8
3416365.4
3385471.3
3354571.7
3323666.6
3292755.8
3261839.6
3230917.7
3199990.3
3169057.3
3138118.8
3107174.7
3076225
3045269.7
3014308.9
2983342.5
2952370.4
2921392.8
2890409.6
2859420.9
2828426.5
2797426.5
2766420.9
2735409.8
2704393
2673370.6
2642342.6
2611309
2580269.8
2549225
2518174.5
2487118.5
2456056.8
2424989.5
2393916.5
2362838
2331753.8
2300663.9
2269568.5
2238467.3
2207360.6
2176248.2
2145130.1
2114006.5
2082877.1
2051742.1
2020601.5
1989455.2
1958303.2
1927145.5
1895982.2
1864813.3
1833638.6
1802458.3
1771272.3
1740080.7
1708883.3
1677680.3
1646471.6
1615257.2
1584037.1
1552811.3
1521579.8
1490342.6
1459099.8
1427851.2
1396596.9
1365336.9
1334071.2
1302799.8
1271522.7
1240239.9
1208951.3
1177657
1146357
1115051.3
1083739.8
1052422.6
1021099.7
989771.05
958436.65
927096.5
895750.62
864398.99
833041.61
801678.48
770309.59
738934.95
707554.55
676168.39
644776.47
613378.78
581975.32
550566.09
519151.09
487730.31
456303.76
424871.42
393433.3
361989.4
330539.69
299084.25
267622.87
236156
204682.69
173204.81
141718.53
110231.15
78728.05
47235.946
15703.804
7395951.8
7574669.3
7577152.3
7585089.1
7561190.6
7536776.6
7506817.7
7477191.4
7446737
7416532.1
7386228
7356013
7325785.4
7295578.4
7265365.3
7235152.5
7204934
7174711.2
7144482.8
7114249.4
7084010.5
7053766.4
7023516.9
6993262.2
6963002.2
6932736.9
6902466.3
6872190.5
6841909.3
6811622.8
6781331
6751033.9
6720731.6
6690423.9
6660110.9
6629792.5
6599468.9
6569140
6538805.7
6508466.1
6478121.2
6447771
6417415.4
6387054.5
6356688.3
6326316.8
6295939.9
6265557.7
6235170.1
6204777.2
6174378.9
6143975.3
6113566.4
6083152.1
6052732.4
6022307.4
5991877
5961441.3
5931000.2
5900553.8
5870101.9
5839644.8
5809182.2
5778714.3
5748240.9
5717762.3
5687278.2
5656788.7
5626293.9
5595793.7
5565288.1
5534777.1
5504260.7
5473738.9
5443211.7
5412679.1
5382141.1
5351597.7
5321048.9
5290494.7
5259935
5229370
5198799.5
5168223.7
5137642.4
5107055.6
5076463.5
5045865.9
5015262.9
4984654.5
4954040.6
4923421.3
4892796.6
4862166.4
4831530.8
4800889.7
4770243.2
4739591.2
4708933.8
4678270.9
4647602.6
4616928.8
4586249.5
4555564.8
4524874.6
4494179
4463477.8
4432771.2
4402059.2
4371341.6
4340618.6
4309890.1
4279156.1
4248416.6
4217671.6
4186921.2
4156165.2
4125403.8
4094636.8
4063864.4
4033086.4
4002303
3971514
3940719.5
3909919.5
3879114
3848303
3817486.5
3786664.4
3755836.8
3725003.7
3694165.1
3663320.9
3632471.2
3601616
3570755.2
3539888.9
3509017.1
3478139.7
3447256.7
3416368.2
3385474.2
3354574.6
3323669.4
3292758.7
3261842.4
3230920.6
3199993.2
3169060.2
3138121.7
3107177.6
3076227.9
3045272.6
3014311.8
2983345.3
2952373.3
2921395.7
2890412.5
2859423.7
2828429.4
2797429.4
2766423.8
2735412.6
2704395.9
2673373.5
2642345.5
2611311.9
2580272.7
2549227.9
2518177.4
2487121.3
2456059.7
2424992.3
2393919.4
2362840.8
2331756.6
2300666.8
2269571.3
2238470.2
2207363.5
2176251.1
2145133
2114009.3
2082880
2051745
2020604.3
1989458
1958306
1927148.4
1895985.1
1864816.1
1833641.5
1802461.2
1771275.2
1740083.5
1708886.2
1677683.2
1646474.4
1615260
1584040
1552814.2
1521582.7
1490345.5
1459102.6
1427854.1
1396599.8
1365339.8
1334074.1
1302802.7
1271525.6
1240242.7
1208954.2
1177659.9
1146359.9
1115054.2
1083742.7
1052425.5
1021102.6
989773.92
958439.52
927099.38
895753.49
864401.86
833044.48
801681.35
770312.47
738937.82
707557.43
676171.27
644779.34
613381.65
581978.2
550568.97
519153.97
487733.19
456306.63
424874.3
393436.17
361992.28
330542.56
299087.12
267625.75
236158.88
204685.59
173207.68
141721.48
110233.84
78731.176
47236.483
15709.968
7264482.7
7559380.4
7573036.6
7586662.2
7562636.4
7537876.7
7507411
7477494.4
7446871.5
7416588.6
7386249.3
7356021.1
7325789
7295581
7265367.8
7235155.3
7204937
7174714.3
7144486
7114252.5
7084013.7
7053769.6
7023520.1
6993265.4
6963005.4
6932740.1
6902469.5
6872193.7
6841912.5
6811626
6781334.2
6751037.1
6720734.8
6690427.1
6660114.1
6629795.7
6599472.1
6569143.2
6538808.9
6508469.3
6478124.4
6447774.2
6417418.6
6387057.7
6356691.5
6326320
6295943.1
6265560.9
6235173.3
6204780.4
6174382.1
6143978.5
6113569.6
6083155.3
6052735.6
6022310.6
5991880.2
5961444.5
5931003.4
5900557
5870105.2
5839648
5809185.4
5778717.5
5748244.2
5717765.5
5687281.4
5656791.9
5626297.1
5595796.9
5565291.3
5534780.3
5504263.9
5473742.1
5443214.9
5412682.3
5382144.3
5351600.9
5321052.1
5290497.9
5259938.2
5229373.2
5198802.7
5168226.9
5137645.6
5107058.8
5076466.7
5045869.1
5015266.1
4984657.7
4954043.8
4923424.5
4892799.8
4862169.6
4831534
4800892.9
4770246.4
4739594.4
4708937
4678274.1
4647605.8
4616932
4586252.7
4555568
4524877.8
4494182.2
4463481
4432774.4
4402062.4
4371344.8
4340621.8
4309893.3
4279159.3
4248419.8
4217674.8
4186924.4
4156168.4
4125407
4094640
4063867.6
4033089.6
4002306.2
3971517.2
3940722.7
3909922.7
3879117.2
3848306.2
3817489.7
3786667.6
3755840
3725006.9
3694168.3
3663324.1
3632474.4
3601619.2
3570758.4
3539892.1
3509020.3
3478142.9
3447259.9
3416371.4
3385477.4
3354577.8
3323672.6
3292761.9
3261845.6
3230923.8
3199996.4
3169063.4
3138124.9
3107180.8
3076231.1
3045275.8
3014315
2983348.5
2952376.5
2921398.9
2890415.7
2859426.9
2828432.6
2797432.6
2766427
2735415.8
2704399.1
2673376.7
2642348.7
2611315.1
2580275.9
2549231.1
2518180.6
2487124.6
2456062.9
2424995.6
2393922.6
2362844
2331759.8
2300670
2269574.5
2238473.4
2207366.7
2176254.3
2145136.2
2114012.5
2082883.2
2051748.2
2020607.5
1989461.2
1958309.3
1927151.6
1895988.3
1864819.3
1833644.7
1802464.4
1771278.4
1740086.7
1708889.4
1677686.4
1646477.7
1615263.3
1584043.2
1552817.4
1521585.9
1490348.7
1459105.8
1427857.3
1396603
1365343
1334077.3
1302805.9
1271528.8
1240245.9
1208957.4
1177663.1
1146363.1
1115057.4
1083745.9
1052428.7
1021105.8
989777.12
958442.72
927102.58
895756.7
864405.06
833047.68
801684.55
770315.67
738941.03
707560.63
676174.47
644782.55
613384.86
581981.4
550572.17
519157.17
487736.39
456309.84
424877.5
393439.38
361995.48
330545.77
299090.33
267628.96
236162.09
204688.81
173210.91
141724.75
110236.98
78734.547
47237.886
15716.091
)
;

boundaryField
{
    inlet
    {
        type            fixedFluxPressure;
        gradient        uniform 0;
        value           nonuniform List<scalar> 10(7801480.5 7790896.7 7772810.8 7745002.9 7706490.3 7656368.9 7592686.8 7509439.1 7395951.8 7264482.7);
    }
    outlet
    {
        type            totalPressure;
        rho             rho;
        psi             none;
        gamma           1;
        p0              uniform 0;
        value           uniform 0;
    }
    walls
    {
        type            fixedFluxPressure;
        gradient        uniform 0;
        value           nonuniform List<scalar> 
250
(
7264482.7
7559380.4
7573036.6
7586662.2
7562636.4
7537876.7
7507411
7477494.4
7446871.5
7416588.6
7386249.3
7356021.1
7325789
7295581
7265367.8
7235155.3
7204937
7174714.3
7144486
7114252.5
7084013.7
7053769.6
7023520.1
6993265.4
6963005.4
6932740.1
6902469.5
6872193.7
6841912.5
6811626
6781334.2
6751037.1
6720734.8
6690427.1
6660114.1
6629795.7
6599472.1
6569143.2
6538808.9
6508469.3
6478124.4
6447774.2
6417418.6
6387057.7
6356691.5
6326320
6295943.1
6265560.9
6235173.3
6204780.4
6174382.1
6143978.5
6113569.6
6083155.3
6052735.6
6022310.6
5991880.2
5961444.5
5931003.4
5900557
5870105.2
5839648
5809185.4
5778717.5
5748244.2
5717765.5
5687281.4
5656791.9
5626297.1
5595796.9
5565291.3
5534780.3
5504263.9
5473742.1
5443214.9
5412682.3
5382144.3
5351600.9
5321052.1
5290497.9
5259938.2
5229373.2
5198802.7
5168226.9
5137645.6
5107058.8
5076466.7
5045869.1
5015266.1
4984657.7
4954043.8
4923424.5
4892799.8
4862169.6
4831534
4800892.9
4770246.4
4739594.4
4708937
4678274.1
4647605.8
4616932
4586252.7
4555568
4524877.8
4494182.2
4463481
4432774.4
4402062.4
4371344.8
4340621.8
4309893.3
4279159.3
4248419.8
4217674.8
4186924.4
4156168.4
4125407
4094640
4063867.6
4033089.6
4002306.2
3971517.2
3940722.7
3909922.7
3879117.2
3848306.2
3817489.7
3786667.6
3755840
3725006.9
3694168.3
3663324.1
3632474.4
3601619.2
3570758.4
3539892.1
3509020.3
3478142.9
3447259.9
3416371.4
3385477.4
3354577.8
3323672.6
3292761.9
3261845.6
3230923.8
3199996.4
3169063.4
3138124.9
3107180.8
3076231.1
3045275.8
3014315
2983348.5
2952376.5
2921398.9
2890415.7
2859426.9
2828432.6
2797432.6
2766427
2735415.8
2704399.1
2673376.7
2642348.7
2611315.1
2580275.9
2549231.1
2518180.6
2487124.6
2456062.9
2424995.6
2393922.6
2362844
2331759.8
2300670
2269574.5
2238473.4
2207366.7
2176254.3
2145136.2
2114012.5
2082883.2
2051748.2
2020607.5
1989461.2
1958309.3
1927151.6
1895988.3
1864819.3
1833644.7
1802464.4
1771278.4
1740086.7
1708889.4
1677686.4
1646477.7
1615263.3
1584043.2
1552817.4
1521585.9
1490348.7
1459105.8
1427857.3
1396603
1365343
1334077.3
1302805.9
1271528.8
1240245.9
1208957.4
1177663.1
1146363.1
1115057.4
1083745.9
1052428.7
1021105.8
989777.12
958442.72
927102.58
895756.7
864405.06
833047.68
801684.55
770315.67
738941.03
707560.63
676174.47
644782.55
613384.86
581981.4
550572.17
519157.17
487736.39
456309.84
424877.5
393439.38
361995.48
330545.77
299090.33
267628.96
236162.09
204688.81
173210.91
141724.75
110236.98
78734.547
47237.886
15716.091
)
;
    }
    centreline
    {
        type            symmetryPlane;
    }
    frontAndBack
    {
        type            empty;
    }
}


// ************************************************************************* //
