/*--------------------------------*- C++ -*----------------------------------*\
  =========                 |
  \\      /  F ield         | OpenFOAM: The Open Source CFD Toolbox
   \\    /   O peration     | Website:  https://openfoam.org
    \\  /    A nd           | Version:  6
     \\/     M anipulation  |
\*---------------------------------------------------------------------------*/
FoamFile
{
    version     2.0;
    format      ascii;
    class       volScalarField;
    location    "705";
    object      p;
}
// * * * * * * * * * * * * * * * * * * * * * * * * * * * * * * * * * * * * * //

dimensions      [0 2 -2 0 0 0 0];

internalField   nonuniform List<scalar> 
625
(
10206467
10067184
9988540.7
9908658.2
9829348
9749548.8
9669613.7
9589601.6
9509554.6
9429478.3
9349375.8
9269247.2
9189092.5
9108911.8
9028704.9
8948471.9
8868212.7
8787927.4
8707615.9
8627278.1
8546914.1
8466523.9
8386107.4
8305664.5
8225195.4
8144699.8
8064178
7983629.7
7903055
7822453.9
7741826.4
7661172.3
7580491.8
7499784.7
7419051.2
7338291
7257504.3
7176690.9
7095851
7014984.4
6934091.1
6853171.1
6772224.5
6691251
6610250.9
6529223.9
6448170.2
6367089.6
6285982.2
6204847.9
6123686.7
6042498.7
5961283.6
5880041.7
5798772.7
5717476.8
5636153.8
5554803.8
5473426.8
5392022.6
5310591.4
5229133
5147647.4
5066134.7
4984594.8
4903027.6
4821433.2
4739811.6
4658162.6
4576486.4
4494782.8
4413051.8
4331293.5
4249507.8
4167694.7
4085854.1
4003986
3922090.4
3840167.4
3758216.7
3676238.6
3594232.8
3512199.5
3430138.5
3348049.8
3265933.5
3183789.5
3101617.7
3019418.2
2937191
2854935.9
2772653.1
2690342.4
2608003.8
2525637.4
2443243
2360820.8
2278370.5
2195892.3
2113386.1
2030851.9
1948289.6
1865699.2
1783080.8
1700434.2
1617759.5
1535056.6
1452325.6
1369566.3
1286778.8
1203963
1121118.9
1038246.6
955345.87
872416.8
789459.4
706473.48
623459.39
540416.26
457346
374244.18
291120.76
207952.93
124794.31
41515.518
10186545
10065165
9987456.1
9908616.3
9829353.7
9749562.7
9669619.5
9589604.7
9509556.7
9429480.1
9349377.6
9269249
9189094.3
9108913.6
9028706.7
8948473.7
8868214.5
8787929.2
8707617.7
8627279.9
8546915.9
8466525.7
8386109.1
8305666.3
8225197.1
8144701.6
8064179.8
7983631.5
7903056.8
7822455.7
7741828.2
7661174.1
7580493.6
7499786.5
7419053
7338292.8
7257506.1
7176692.7
7095852.8
7014986.2
6934092.9
6853172.9
6772226.2
6691252.8
6610252.7
6529225.7
6448172
6367091.4
6285984
6204849.7
6123688.5
6042500.4
5961285.4
5880043.5
5798774.5
5717478.6
5636155.6
5554805.6
5473428.6
5392024.4
5310593.2
5229134.8
5147649.2
5066136.5
4984596.6
4903029.4
4821435
4739813.4
4658164.4
4576488.2
4494784.6
4413053.6
4331295.3
4249509.6
4167696.4
4085855.8
4003987.8
3922092.2
3840169.1
3758218.5
3676240.4
3594234.6
3512201.2
3430140.3
3348051.6
3265935.3
3183791.3
3101619.5
3019420
2937192.8
2854937.7
2772654.9
2690344.2
2608005.6
2525639.2
2443244.8
2360822.6
2278372.3
2195894.1
2113387.9
2030853.7
1948291.4
1865701
1783082.6
1700436
1617761.3
1535058.4
1452327.4
1369568.1
1286780.6
1203964.8
1121120.7
1038248.4
955347.66
872418.59
789461.19
706475.28
623461.18
540418.08
457347.74
374246.1
291122.24
207955.45
124793.36
41521.933
10148605
10060655
9986247.1
9908626.3
9829394
9749589.5
9669630.2
9589610.1
9509560.4
9429483.5
9349380.9
9269252.3
9189097.6
9108916.8
9028710
8948477
8868217.8
8787932.5
8707620.9
8627283.2
8546919.2
8466529
8386112.4
8305669.6
8225200.4
8144704.9
8064183
7983634.8
7903060.1
7822459
7741831.4
7661177.4
7580496.9
7499789.8
7419056.2
7338296.1
7257509.4
7176696
7095856.1
7014989.4
6934096.2
6853176.2
6772229.5
6691256.1
6610255.9
6529229
6448175.2
6367094.7
6285987.3
6204853
6123691.8
6042503.7
5961288.7
5880046.7
5798777.8
5717481.9
5636158.9
5554808.9
5473431.8
5392027.7
5310596.4
5229138
5147652.5
5066139.8
4984599.8
4903032.7
4821438.3
4739816.6
4658167.7
4576491.4
4494787.9
4413056.9
4331298.6
4249512.9
4167699.7
4085859.1
4003991.1
3922095.5
3840172.4
3758221.8
3676243.6
3594237.9
3512204.5
3430143.5
3348054.9
3265938.6
3183794.5
3101622.8
3019423.3
2937196.1
2854941
2772658.2
2690347.5
2608008.9
2525642.5
2443248.1
2360825.8
2278375.6
2195897.4
2113391.2
2030856.9
1948294.7
1865704.3
1783085.8
1700439.3
1617764.6
1535061.7
1452330.6
1369571.4
1286783.8
1203968.1
1121124
1038251.6
955350.94
872421.87
789464.46
706478.56
623464.45
540421.37
457350.98
374249.45
291125.33
207959.12
124794.48
41529.234
10083122
10054543
9985246.3
9908800
9829496.5
9749635.9
9669647.3
9589618.5
9509566.5
9429489
9349386.4
9269257.7
9189103.1
9108922.3
9028715.4
8948482.4
8868223.3
8787937.9
8707626.4
8627288.7
8546924.7
8466534.4
8386117.9
8305675
8225205.9
8144710.4
8064188.5
7983640.2
7903065.6
7822464.4
7741836.9
7661182.9
7580502.3
7499795.3
7419061.7
7338301.5
7257514.8
7176701.5
7095861.5
7014994.9
6934101.6
6853181.7
6772235
6691261.6
6610261.4
6529234.4
6448180.7
6367100.1
6285992.7
6204858.4
6123697.3
6042509.2
5961294.2
5880052.2
5798783.3
5717487.3
5636164.4
5554814.4
5473437.3
5392033.1
5310601.9
5229143.5
5147657.9
5066145.2
4984605.3
4903038.1
4821443.8
4739822.1
4658173.2
4576496.9
4494793.3
4413062.4
4331304.1
4249518.3
4167705.2
4085864.6
4003996.5
3922101
3840177.9
3758227.3
3676249.1
3594243.3
3512210
3430149
3348060.3
3265944
3183800
3101628.3
3019428.8
2937201.5
2854946.5
2772663.6
2690352.9
2608014.4
2525647.9
2443253.6
2360831.3
2278381.1
2195902.8
2113396.6
2030862.4
1948300.1
1865709.8
1783091.3
1700444.7
1617770
1535067.2
1452336.1
1369576.8
1286789.3
1203973.5
1121129.5
1038257.1
955356.4
872427.33
789469.92
706484.02
623469.9
540426.84
457356.42
374254.97
291130.65
207964.92
124797.79
41539.961
10000597
10049344
9984835.9
9909183.8
9829657.6
9749696.9
9669668.4
9589628.9
9509574.2
9429496.2
9349393.5
9269264.8
9189110.2
9108929.4
9028722.5
8948489.5
8868230.4
8787945
8707633.5
8627295.8
8546931.8
8466541.5
8386125
8305682.1
8225213
8144717.5
8064195.6
7983647.3
7903072.7
7822471.6
7741844
7661190
7580509.4
7499802.4
7419068.8
7338308.6
7257521.9
7176708.6
7095868.6
7015002
6934108.7
6853188.8
6772242.1
6691268.7
6610268.5
6529241.5
6448187.8
6367107.2
6285999.8
6204865.5
6123704.4
6042516.3
5961301.3
5880059.3
5798790.4
5717494.4
5636171.5
5554821.5
5473444.4
5392040.2
5310609
5229150.6
5147665
5066152.3
4984612.4
4903045.2
4821450.9
4739829.2
4658180.3
4576504
4494800.4
4413069.5
4331311.2
4249525.4
4167712.3
4085871.7
4004003.6
3922108.1
3840185
3758234.4
3676256.2
3594250.4
3512217.1
3430156.1
3348067.4
3265951.1
3183807.1
3101635.4
3019435.9
2937208.6
2854953.6
2772670.7
2690360
2608021.5
2525655
2443260.7
2360838.4
2278388.2
2195909.9
2113403.7
2030869.5
1948307.2
1865716.9
1783098.4
1700451.8
1617777.1
1535074.3
1452343.2
1369583.9
1286796.4
1203980.6
1121136.6
1038264.2
955363.49
872434.43
789477.02
706491.11
623477
540433.94
457363.51
374262.09
291137.7
207972.18
124803.38
41552.402
)
;

boundaryField
{
    inlet
    {
        type            fixedFluxPressure;
        gradient        uniform 0;
        value           nonuniform List<scalar> 5(10206467 10186545 10148605 10083122 10000597);
    }
    outlet
    {
        type            totalPressure;
        rho             rho;
        psi             none;
        gamma           1;
        p0              uniform 0;
        value           uniform 0;
    }
    walls
    {
        type            fixedFluxPressure;
        gradient        uniform 0;
        value           nonuniform List<scalar> 
125
(
10000597
10049344
9984835.9
9909183.8
9829657.6
9749696.9
9669668.4
9589628.9
9509574.2
9429496.2
9349393.5
9269264.8
9189110.2
9108929.4
9028722.5
8948489.5
8868230.4
8787945
8707633.5
8627295.8
8546931.8
8466541.5
8386125
8305682.1
8225213
8144717.5
8064195.6
7983647.3
7903072.7
7822471.6
7741844
7661190
7580509.4
7499802.4
7419068.8
7338308.6
7257521.9
7176708.6
7095868.6
7015002
6934108.7
6853188.8
6772242.1
6691268.7
6610268.5
6529241.5
6448187.8
6367107.2
6285999.8
6204865.5
6123704.4
6042516.3
5961301.3
5880059.3
5798790.4
5717494.4
5636171.5
5554821.5
5473444.4
5392040.2
5310609
5229150.6
5147665
5066152.3
4984612.4
4903045.2
4821450.9
4739829.2
4658180.3
4576504
4494800.4
4413069.5
4331311.2
4249525.4
4167712.3
4085871.7
4004003.6
3922108.1
3840185
3758234.4
3676256.2
3594250.4
3512217.1
3430156.1
3348067.4
3265951.1
3183807.1
3101635.4
3019435.9
2937208.6
2854953.6
2772670.7
2690360
2608021.5
2525655
2443260.7
2360838.4
2278388.2
2195909.9
2113403.7
2030869.5
1948307.2
1865716.9
1783098.4
1700451.8
1617777.1
1535074.3
1452343.2
1369583.9
1286796.4
1203980.6
1121136.6
1038264.2
955363.49
872434.43
789477.02
706491.11
623477
540433.94
457363.51
374262.09
291137.7
207972.18
124803.38
41552.402
)
;
    }
    centreline
    {
        type            symmetryPlane;
    }
    frontAndBack
    {
        type            empty;
    }
}


// ************************************************************************* //
