/*--------------------------------*- C++ -*----------------------------------*\
  =========                 |
  \\      /  F ield         | OpenFOAM: The Open Source CFD Toolbox
   \\    /   O peration     | Website:  https://openfoam.org
    \\  /    A nd           | Version:  6
     \\/     M anipulation  |
\*---------------------------------------------------------------------------*/
FoamFile
{
    version     2.0;
    format      ascii;
    class       volScalarField;
    location    "10000";
    object      p;
}
// * * * * * * * * * * * * * * * * * * * * * * * * * * * * * * * * * * * * * //

dimensions      [0 2 -2 0 0 0 0];

internalField   nonuniform List<scalar> 
2500
(
24132513
24054940
23991834
23936206
23883222
23832005
23782042
23732877
23684212
23635862
23587710
23539683
23491734
23443833
23395964
23348113
23300274
23252443
23204615
23156790
23108965
23061141
23013316
22965490
22917663
22869835
22822006
22774176
22726344
22678511
22630676
22582840
22535002
22487163
22439322
22391480
22343636
22295791
22247944
22200096
22152246
22104395
22056542
22008688
21960832
21912974
21865116
21817255
21769393
21721530
21673665
21625798
21577930
21530061
21482189
21434317
21386443
21338567
21290690
21242811
21194931
21147049
21099166
21051281
21003394
20955507
20907617
20859726
20811834
20763940
20716044
20668147
20620249
20572348
20524447
20476544
20428639
20380733
20332825
20284915
20237005
20189092
20141178
20093263
20045346
19997427
19949507
19901586
19853663
19805738
19757812
19709884
19661955
19614024
19566092
19518158
19470223
19422286
19374347
19326407
19278466
19230523
19182578
19134632
19086684
19038735
18990784
18942832
18894878
18846923
18798966
18751007
18703047
18655086
18607123
18559158
18511192
18463224
18415255
18367284
18319312
18271338
18223362
18175385
18127407
18079427
18031445
17983462
17935477
17887491
17839503
17791514
17743523
17695531
17647537
17599541
17551544
17503546
17455545
17407544
17359540
17311536
17263529
17215521
17167512
17119501
17071488
17023474
16975459
16927441
16879423
16831402
16783381
16735357
16687332
16639306
16591278
16543248
16495217
16447184
16399150
16351114
16303077
16255038
16206997
16158955
16110912
16062866
16014820
15966771
15918722
15870670
15822617
15774563
15726507
15678449
15630390
15582329
15534267
15486203
15438138
15390071
15342002
15293932
15245860
15197787
15149712
15101636
15053558
15005479
14957398
14909315
14861231
14813145
14765058
14716969
14668879
14620787
14572693
14524598
14476502
14428403
14380304
14332202
14284099
14235995
14187889
14139781
14091672
14043561
13995449
13947335
13899220
13851103
13802984
13754864
13706742
13658619
13610494
13562368
13514240
13466110
13417979
13369846
13321712
13273576
13225439
13177300
13129159
13081017
13032873
12984728
12936581
12888433
12840283
12792131
12743978
12695823
12647667
12599509
12551349
12503188
12455026
12406862
12358696
12310528
12262360
12214189
12166017
12117843
12069668
12021491
11973313
11925133
11876951
11828768
11780583
11732397
11684209
11636020
11587829
11539636
11491442
11443246
11395049
11346850
11298649
11250447
11202243
11154038
11105831
11057623
11009413
10961201
10912988
10864773
10816557
10768339
10720119
10671898
10623675
10575451
10527225
10478997
10430768
10382538
10334305
10286071
10237836
10189599
10141360
10093120
10044878
9996634.8
9948389.8
9900143.2
9851895.1
9803645.3
9755393.9
9707141
9658886.4
9610630.3
9562372.5
9514113.2
9465852.3
9417589.7
9369325.6
9321059.9
9272792.6
9224523.7
9176253.2
9127981.1
9079707.4
9031432.1
8983155.2
8934876.8
8886596.7
8838315
8790031.7
8741746.8
8693460.4
8645172.3
8596882.6
8548591.3
8500298.5
8452004
8403707.9
8355410.2
8307111
8258810.1
8210507.6
8162203.5
8113897.8
8065590.5
8017281.6
7968971.1
7920659
7872345.3
7824030
7775713.1
7727394.6
7679074.5
7630752.8
7582429.4
7534104.5
7485777.9
7437449.8
7389120
7340788.7
7292455.7
7244121.1
7195784.9
7147447.1
7099107.7
7050766.7
7002424.1
6954079.9
6905734
6857386.6
6809037.5
6760686.8
6712334.5
6663980.6
6615625.1
6567268
6518909.3
6470548.9
6422187
6373823.4
6325458.2
6277091.4
6228723
6180353
6131981.4
6083608.1
6035233.2
5986856.8
5938478.7
5890098.9
5841717.6
5793334.7
5744950.1
5696563.9
5648176.1
5599786.7
5551395.7
5503003
5454608.7
5406212.8
5357815.3
5309416.2
5261015.4
5212613.1
5164209.1
5115803.5
5067396.2
5018987.4
4970576.9
4922164.8
4873751.1
4825335.7
4776918.8
4728500.2
4680080
4631658.1
4583234.7
4534809.6
4486382.9
4437954.6
4389524.6
4341093
4292659.8
4244225
4195788.5
4147350.4
4098910.7
4050469.4
4002026.4
3953581.8
3905135.6
3856687.7
3808238.2
3759787.1
3711334.4
3662880
3614424
3565966.4
3517507.1
3469046.2
3420583.7
3372119.5
3323653.7
3275186.3
3226717.3
3178246.6
3129774.3
3081300.3
3032824.7
2984347.5
2935868.6
2887388.2
2838906
2790422.3
2741936.9
2693449.8
2644961.2
2596470.9
2547978.9
2499485.4
2450990.2
2402493.3
2353994.8
2305494.7
2256992.9
2208489.5
2159984.5
2111477.8
2062969.5
2014459.5
1965947.9
1917434.7
1868919.8
1820403.3
1771885.1
1723365.3
1674843.8
1626320.7
1577796
1529269.6
1480741.6
1432211.9
1383680.6
1335147.7
1286613.1
1238076.8
1189538.9
1140999.4
1092458.2
1043915.4
995370.94
946824.82
898277.06
849727.65
801176.59
752623.89
704069.54
655513.54
606955.91
558396.64
509835.73
461273.21
412709.08
364143.38
315576.16
267007.47
218437.53
169867.26
121295.3
72706.91
24142.781
24122880
24049527
23987154
23932744
23880934
23830513
23781069
23732248
23683809
23635603
23587544
23539577
23491665
23443790
23395936
23348095
23300263
23252436
23204611
23156787
23108964
23061140
23013316
22965491
22917664
22869837
22822008
22774177
22726345
22678512
22630677
22582841
22535004
22487164
22439324
22391482
22343638
22295793
22247946
22200098
22152248
22104397
22056544
22008689
21960833
21912976
21865117
21817257
21769395
21721531
21673666
21625800
21577932
21530062
21482191
21434318
21386444
21338569
21290691
21242813
21194932
21147051
21099167
21051282
21003396
20955508
20907619
20859728
20811835
20763941
20716046
20668149
20620250
20572350
20524448
20476545
20428640
20380734
20332826
20284917
20237006
20189094
20141180
20093265
20045348
19997429
19949509
19901587
19853664
19805740
19757814
19709886
19661957
19614026
19566093
19518160
19470224
19422287
19374349
19326409
19278467
19230524
19182580
19134633
19086686
19038737
18990786
18942833
18894880
18846924
18798967
18751009
18703049
18655087
18607124
18559160
18511193
18463226
18415256
18367286
18319313
18271339
18223364
18175387
18127408
18079428
18031447
17983464
17935479
17887493
17839505
17791516
17743525
17695532
17647538
17599543
17551546
17503547
17455547
17407545
17359542
17311537
17263531
17215523
17167514
17119503
17071490
17023476
16975460
16927443
16879424
16831404
16783382
16735359
16687334
16639307
16591279
16543250
16495218
16447186
16399151
16351116
16303078
16255039
16206999
16158957
16110913
16062868
16014821
15966773
15918723
15870672
15822619
15774564
15726508
15678451
15630392
15582331
15534269
15486205
15438139
15390072
15342004
15293934
15245862
15197789
15149714
15101638
15053560
15005480
14957399
14909317
14861233
14813147
14765060
14716971
14668881
14620789
14572695
14524600
14476503
14428405
14380305
14332204
14284101
14235997
14187891
14139783
14091674
14043563
13995451
13947337
13899221
13851104
13802986
13754866
13706744
13658621
13610496
13562369
13514241
13466112
13417981
13369848
13321714
13273578
13225440
13177301
13129161
13081019
13032875
12984730
12936583
12888434
12840284
12792133
12743979
12695825
12647668
12599511
12551351
12503190
12455027
12406863
12358697
12310530
12262361
12214191
12166019
12117845
12069670
12021493
11973314
11925134
11876953
11828770
11780585
11732399
11684211
11636021
11587830
11539638
11491443
11443248
11395050
11346851
11298651
11250449
11202245
11154040
11105833
11057624
11009414
10961203
10912989
10864775
10816558
10768340
10720121
10671899
10623677
10575452
10527226
10478999
10430770
10382539
10334307
10286073
10237838
10189601
10141362
10093122
10044880
9996636.4
9948391.4
9900144.8
9851896.7
9803646.9
9755395.5
9707142.6
9658888
9610631.9
9562374.1
9514114.8
9465853.9
9417591.3
9369327.2
9321061.5
9272794.2
9224525.3
9176254.8
9127982.7
9079709
9031433.7
8983156.8
8934878.4
8886598.3
8838316.6
8790033.3
8741748.4
8693462
8645173.9
8596884.2
8548592.9
8500300.1
8452005.6
8403709.5
8355411.8
8307112.6
8258811.7
8210509.2
8162205.1
8113899.4
8065592.1
8017283.2
7968972.8
7920660.7
7872346.9
7824031.6
7775714.7
7727396.2
7679076.1
7630754.4
7582431
7534106.1
7485779.6
7437451.4
7389121.6
7340790.3
7292457.3
7244122.7
7195786.5
7147448.7
7099109.3
7050768.3
7002425.7
6954081.5
6905735.6
6857388.2
6809039.1
6760688.4
6712336.1
6663982.2
6615626.7
6567269.6
6518910.9
6470550.5
6422188.6
6373825
6325459.8
6277093
6228724.6
6180354.6
6131983
6083609.7
6035234.8
5986858.4
5938480.3
5890100.5
5841719.2
5793336.3
5744951.7
5696565.5
5648177.7
5599788.3
5551397.3
5503004.6
5454610.3
5406214.4
5357816.9
5309417.8
5261017
5212614.7
5164210.7
5115805.1
5067397.8
5018989
4970578.5
4922166.4
4873752.7
4825337.3
4776920.4
4728501.8
4680081.6
4631659.7
4583236.3
4534811.2
4486384.5
4437956.2
4389526.2
4341094.6
4292661.4
4244226.6
4195790.1
4147352
4098912.3
4050471
4002028
3953583.4
3905137.2
3856689.3
3808239.8
3759788.7
3711336
3662881.6
3614425.6
3565968
3517508.7
3469047.8
3420585.3
3372121.1
3323655.3
3275187.9
3226718.9
3178248.2
3129775.9
3081301.9
3032826.3
2984349.1
2935870.2
2887389.8
2838907.6
2790423.9
2741938.5
2693451.4
2644962.8
2596472.5
2547980.5
2499487
2450991.7
2402494.9
2353996.4
2305496.3
2256994.5
2208491.1
2159986.1
2111479.4
2062971.1
2014461.1
1965949.5
1917436.3
1868921.4
1820404.9
1771886.7
1723366.9
1674845.4
1626322.3
1577797.6
1529271.2
1480743.2
1432213.5
1383682.2
1335149.3
1286614.7
1238078.4
1189540.5
1141001
1092459.8
1043917
995372.53
946826.42
898278.65
849729.24
801178.18
752625.48
704071.13
655515.13
606957.49
558398.21
509837.29
461274.74
412710.58
364144.83
315577.5
267008.66
218438.63
169867.95
121293.07
72702.782
24161.528
24105317
24036725
23978315
23926844
23877111
23828071
23779520
23731269
23683191
23635214
23587299
23539421
23491567
23443728
23395897
23348071
23300248
23252427
23204606
23156785
23108963
23061141
23013317
22965492
22917666
22869839
22822010
22774180
22726348
22678515
22630680
22582844
22535006
22487167
22439326
22391484
22343641
22295795
22247949
22200100
22152251
22104399
22056546
22008692
21960836
21912979
21865120
21817260
21769398
21721534
21673669
21625803
21577934
21530065
21482194
21434321
21386447
21338571
21290694
21242815
21194935
21147053
21099170
21051285
21003399
20955511
20907622
20859731
20811838
20763944
20716049
20668152
20620253
20572353
20524451
20476548
20428643
20380737
20332829
20284920
20237009
20189097
20141183
20093267
20045350
19997432
19949512
19901590
19853667
19805742
19757816
19709889
19661959
19614029
19566096
19518162
19470227
19422290
19374352
19326412
19278470
19230527
19182582
19134636
19086689
19038739
18990789
18942836
18894882
18846927
18798970
18751012
18703052
18655090
18607127
18559162
18511196
18463228
18415259
18367288
18319316
18271342
18223367
18175390
18127411
18079431
18031450
17983466
17935482
17887496
17839508
17791518
17743528
17695535
17647541
17599546
17551549
17503550
17455550
17407548
17359545
17311540
17263534
17215526
17167516
17119505
17071493
17023479
16975463
16927446
16879427
16831407
16783385
16735362
16687337
16639310
16591282
16543252
16495221
16447189
16399154
16351118
16303081
16255042
16207002
16158960
16110916
16062871
16014824
15966776
15918726
15870675
15822622
15774567
15726511
15678453
15630394
15582334
15534271
15486207
15438142
15390075
15342007
15293936
15245865
15197792
15149717
15101641
15053563
15005483
14957402
14909320
14861235
14813150
14765063
14716974
14668883
14620791
14572698
14524603
14476506
14428408
14380308
14332207
14284104
14235999
14187893
14139786
14091677
14043566
13995453
13947340
13899224
13851107
13802989
13754868
13706747
13658623
13610499
13562372
13514244
13466115
13417983
13369851
13321716
13273581
13225443
13177304
13129163
13081021
13032878
12984732
12936585
12888437
12840287
12792135
12743982
12695827
12647671
12599513
12551354
12503193
12455030
12406866
12358700
12310533
12262364
12214193
12166021
12117848
12069672
12021496
11973317
11925137
11876956
11828772
11780588
11732401
11684214
11636024
11587833
11539640
11491446
11443250
11395053
11346854
11298654
11250451
11202248
11154042
11105835
11057627
11009417
10961205
10912992
10864777
10816561
10768343
10720123
10671902
10623679
10575455
10527229
10479002
10430773
10382542
10334310
10286076
10237840
10189603
10141365
10093124
10044883
9996639.2
9948394.2
9900147.6
9851899.4
9803649.7
9755398.3
9707145.3
9658890.8
9610634.6
9562376.9
9514117.6
9465856.6
9417594.1
9369330
9321064.3
9272797
9224528.1
9176257.6
9127985.5
9079711.8
9031436.5
8983159.6
8934881.1
8886601
8838319.4
8790036.1
8741751.2
8693464.7
8645176.7
8596887
8548595.7
8500302.8
8452008.4
8403712.3
8355414.6
8307115.3
8258814.4
8210512
8162207.9
8113902.2
8065594.9
8017286
7968975.5
7920663.4
7872349.7
7824034.4
7775717.5
7727399
7679078.9
7630757.1
7582433.8
7534108.9
7485782.3
7437454.2
7389124.4
7340793
7292460.1
7244125.5
7195789.3
7147451.5
7099112.1
7050771.1
7002428.5
6954084.2
6905738.4
6857390.9
6809041.9
6760691.2
6712338.9
6663985
6615629.5
6567272.4
6518913.7
6470553.3
6422191.4
6373827.8
6325462.6
6277095.8
6228727.4
6180357.4
6131985.7
6083612.5
6035237.6
5986861.1
5938483
5890103.3
5841722
5793339
5744954.5
5696568.3
5648180.5
5599791.1
5551400
5503007.4
5454613.1
5406217.2
5357819.7
5309420.6
5261019.8
5212617.4
5164213.4
5115807.8
5067400.6
5018991.7
4970581.3
4922169.2
4873755.5
4825340.1
4776923.1
4728504.6
4680084.3
4631662.5
4583239
4534814
4486387.3
4437958.9
4389529
4341097.4
4292664.2
4244229.3
4195792.9
4147354.8
4098915.1
4050473.7
4002030.8
3953586.2
3905139.9
3856692.1
3808242.6
3759791.5
3711338.7
3662884.4
3614428.4
3565970.7
3517511.5
3469050.6
3420588
3372123.9
3323658.1
3275190.7
3226721.6
3178250.9
3129778.6
3081304.7
3032829.1
2984351.9
2935873
2887392.5
2838910.4
2790426.6
2741941.2
2693454.2
2644965.5
2596475.2
2547983.3
2499489.7
2450994.5
2402497.7
2353999.2
2305499
2256997.3
2208493.9
2159988.8
2111482.1
2062973.8
2014463.9
1965952.3
1917439
1868924.1
1820407.6
1771889.4
1723369.6
1674848.2
1626325.1
1577800.4
1529274
1480746
1432216.3
1383685
1335152
1286617.4
1238081.2
1189543.3
1141003.8
1092462.6
1043919.8
995375.29
946829.18
898281.41
849732
801180.94
752628.23
704073.88
655517.88
606960.23
558400.94
509840
461277.42
412713.2
364147.36
315579.89
267010.82
218440.47
169869.09
121292.48
72701.919
24171.408
24069219
24014112
23964958
23918627
23872006
23824915
23777568
23730059
23682437
23634744
23587004
23539237
23491451
23443655
23395851
23348043
23300232
23252417
23204601
23156783
23108964
23061142
23013320
22965496
22917670
22869843
22822014
22774184
22726353
22678519
22630685
22582849
22535011
22487172
22439331
22391489
22343645
22295800
22247953
22200105
22152255
22104404
22056551
22008697
21960841
21912984
21865125
21817264
21769402
21721539
21673674
21625807
21577939
21530070
21482199
21434326
21386452
21338576
21290699
21242820
21194940
21147058
21099175
21051290
21003404
20955516
20907626
20859735
20811843
20763949
20716053
20668156
20620258
20572358
20524456
20476553
20428648
20380742
20332834
20284925
20237014
20189101
20141188
20093272
20045355
19997437
19949517
19901595
19853672
19805747
19757821
19709893
19661964
19614033
19566101
19518167
19470232
19422295
19374356
19326416
19278475
19230532
19182587
19134641
19086693
19038744
18990793
18942841
18894887
18846932
18798975
18751016
18703056
18655095
18607132
18559167
18511201
18463233
18415264
18367293
18319321
18271347
18223372
18175395
18127416
18079436
18031454
17983471
17935487
17887500
17839513
17791523
17743532
17695540
17647546
17599550
17551553
17503555
17455555
17407553
17359550
17311545
17263538
17215531
17167521
17119510
17071498
17023484
16975468
16927451
16879432
16831412
16783390
16735366
16687341
16639315
16591287
16543257
16495226
16447193
16399159
16351123
16303086
16255047
16207006
16158964
16110921
16062876
16014829
15966781
15918731
15870679
15822626
15774572
15726516
15678458
15630399
15582338
15534276
15486212
15438147
15390080
15342011
15293941
15245870
15197796
15149722
15101645
15053567
15005488
14957407
14909324
14861240
14813155
14765067
14716978
14668888
14620796
14572703
14524608
14476511
14428413
14380313
14332212
14284109
14236004
14187898
14139791
14091681
14043571
13995458
13947344
13899229
13851112
13802993
13754873
13706751
13658628
13610503
13562377
13514249
13466119
13417988
13369855
13321721
13273585
13225448
13177309
13129168
13081026
13032882
12984737
12936590
12888442
12840292
12792140
12743987
12695832
12647676
12599518
12551359
12503198
12455035
12406871
12358705
12310538
12262369
12214198
12166026
12117852
12069677
12021500
11973322
11925142
11876960
11828777
11780593
11732406
11684218
11636029
11587838
11539645
11491451
11443255
11395058
11346859
11298658
11250456
11202252
11154047
11105840
11057632
11009422
10961210
10912997
10864782
10816566
10768348
10720128
10671907
10623684
10575460
10527234
10479007
10430777
10382547
10334314
10286081
10237845
10189608
10141369
10093129
10044887
9996644
9948399
9900152.4
9851904.3
9803654.5
9755403.1
9707150.2
9658895.6
9610639.5
9562381.7
9514122.4
9465861.5
9417598.9
9369334.8
9321069.1
9272801.8
9224532.9
9176262.4
9127990.3
9079716.6
9031441.3
8983164.4
8934885.9
8886605.9
8838324.2
8790040.9
8741756
8693469.6
8645181.5
8596891.8
8548600.5
8500307.7
8452013.2
8403717.1
8355419.4
8307120.1
8258819.3
8210516.8
8162212.7
8113907
8065599.7
8017290.8
7968980.3
7920668.2
7872354.5
7824039.2
7775722.3
7727403.8
7679083.7
7630761.9
7582438.6
7534113.7
7485787.1
7437459
7389129.2
7340797.9
7292464.9
7244130.3
7195794.1
7147456.3
7099116.9
7050775.9
7002433.3
6954089
6905743.2
6857395.7
6809046.7
6760696
6712343.7
6663989.8
6615634.3
6567277.2
6518918.5
6470558.1
6422196.2
6373832.6
6325467.4
6277100.6
6228732.2
6180362.2
6131990.5
6083617.3
6035242.4
5986865.9
5938487.8
5890108.1
5841726.8
5793343.8
5744959.3
5696573.1
5648185.3
5599795.9
5551404.8
5503012.2
5454617.9
5406222
5357824.5
5309425.4
5261024.6
5212622.3
5164218.3
5115812.7
5067405.4
5018996.6
4970586.1
4922174
4873760.3
4825344.9
4776928
4728509.4
4680089.2
4631667.3
4583243.9
4534818.8
4486392.1
4437963.7
4389533.8
4341102.2
4292669
4244234.2
4195797.7
4147359.6
4098919.9
4050478.5
4002035.6
3953591
3905144.7
3856696.9
3808247.4
3759796.3
3711343.5
3662889.2
3614433.2
3565975.5
3517516.3
3469055.4
3420592.9
3372128.7
3323662.9
3275195.5
3226726.4
3178255.7
3129783.4
3081309.5
3032833.9
2984356.7
2935877.8
2887397.3
2838915.2
2790431.4
2741946.1
2693459
2644970.4
2596480.1
2547988.1
2499494.5
2450999.3
2402502.5
2354004
2305503.9
2257002.1
2208498.7
2159993.7
2111487
2062978.6
2014468.7
1965957.1
1917443.8
1868929
1820412.4
1771894.3
1723374.5
1674853
1626329.9
1577805.2
1529278.8
1480750.8
1432221.1
1383689.8
1335156.8
1286622.3
1238086
1189548.1
1141008.6
1092467.4
1043924.6
995380.11
946833.99
898286.23
849736.81
801185.75
752633.04
704078.69
655522.68
606965.02
558405.72
509844.75
461282.14
412717.86
364151.9
315584.26
267014.92
218444.07
169871.6
121293.13
72703.768
24184.331
24005874
23981576
23948404
23909413
23866735
23821922
23775884
23729123
23681930
23634481
23586879
23539187
23491442
23443666
23395871
23348066
23300255
23252439
23204621
23156802
23108980
23061158
23013334
22965509
22917683
22869855
22822026
22774195
22726364
22678530
22630695
22582859
22535022
22487182
22439342
22391499
22343656
22295810
22247964
22200115
22152266
22104414
22056561
22008707
21960851
21912994
21865135
21817275
21769413
21721549
21673684
21625818
21577949
21530080
21482209
21434336
21386462
21338586
21290709
21242830
21194950
21147068
21099185
21051300
21003414
20955526
20907637
20859746
20811853
20763959
20716064
20668167
20620268
20572368
20524466
20476563
20428658
20380752
20332844
20284935
20237024
20189112
20141198
20093282
20045365
19997447
19949527
19901605
19853682
19805757
19757831
19709904
19661974
19614044
19566111
19518177
19470242
19422305
19374367
19326427
19278485
19230542
19182597
19134651
19086703
19038754
18990803
18942851
18894897
18846942
18798985
18751027
18703067
18655105
18607142
18559177
18511211
18463243
18415274
18367303
18319331
18271357
18223382
18175405
18127426
18079446
18031465
17983481
17935497
17887510
17839523
17791533
17743542
17695550
17647556
17599561
17551563
17503565
17455565
17407563
17359560
17311555
17263549
17215541
17167531
17119520
17071508
17023494
16975478
16927461
16879442
16831422
16783400
16735376
16687352
16639325
16591297
16543267
16495236
16447203
16399169
16351133
16303096
16255057
16207017
16158974
16110931
16062886
16014839
15966791
15918741
15870690
15822637
15774582
15726526
15678468
15630409
15582349
15534286
15486222
15438157
15390090
15342021
15293951
15245880
15197807
15149732
15101655
15053578
15005498
14957417
14909335
14861250
14813165
14765077
14716989
14668898
14620806
14572713
14524618
14476521
14428423
14380323
14332222
14284119
14236014
14187908
14139801
14091691
14043581
13995468
13947354
13899239
13851122
13803003
13754883
13706762
13658638
13610513
13562387
13514259
13466129
13417998
13369866
13321731
13273595
13225458
13177319
13129178
13081036
13032892
12984747
12936600
12888452
12840302
12792150
12743997
12695842
12647686
12599528
12551369
12503208
12455045
12406881
12358715
12310548
12262379
12214208
12166036
12117862
12069687
12021510
11973332
11925152
11876970
11828787
11780603
11732416
11684228
11636039
11587848
11539655
11491461
11443265
11395068
11346869
11298668
11250466
11202263
11154057
11105850
11057642
11009432
10961220
10913007
10864792
10816576
10768358
10720138
10671917
10623694
10575470
10527244
10479017
10430787
10382557
10334324
10286091
10237855
10189618
10141379
10093139
10044897
9996654
9948409
9900162.4
9851914.3
9803664.5
9755413.1
9707160.2
9658905.6
9610649.5
9562391.7
9514132.4
9465871.5
9417608.9
9369344.8
9321079.1
9272811.8
9224542.9
9176272.4
9128000.3
9079726.6
9031451.3
8983174.4
8934895.9
8886615.9
8838334.2
8790050.9
8741766
8693479.5
8645191.5
8596901.8
8548610.5
8500317.6
8452023.2
8403727.1
8355429.4
8307130.1
8258829.3
8210526.8
8162222.7
8113917
8065609.7
8017300.8
7968990.3
7920678.2
7872364.5
7824049.2
7775732.3
7727413.8
7679093.7
7630771.9
7582448.6
7534123.7
7485797.1
7437469
7389139.2
7340807.8
7292474.9
7244140.3
7195804.1
7147466.3
7099126.9
7050785.9
7002443.3
6954099
6905753.2
6857405.7
6809056.7
6760706
6712353.7
6663999.8
6615644.3
6567287.2
6518928.4
6470568.1
6422206.1
6373842.6
6325477.4
6277110.6
6228742.2
6180372.1
6132000.5
6083627.3
6035252.4
5986875.9
5938497.8
5890118.1
5841736.7
5793353.8
5744969.2
5696583
5648195.2
5599805.8
5551414.8
5503022.1
5454627.9
5406232
5357834.5
5309435.3
5261034.6
5212632.2
5164228.2
5115822.6
5067415.4
5019006.5
4970596
4922183.9
4873770.2
4825354.9
4776937.9
4728519.3
4680099.1
4631677.3
4583253.8
4534828.7
4486402
4437973.7
4389543.7
4341112.1
4292678.9
4244244.1
4195807.6
4147369.5
4098929.8
4050488.5
4002045.5
3953600.9
3905154.7
3856706.8
3808257.3
3759806.2
3711353.5
3662899.1
3614443.1
3565985.5
3517526.2
3469065.3
3420602.8
3372138.6
3323672.8
3275205.4
3226736.4
3178265.7
3129793.4
3081319.4
3032843.8
2984366.6
2935887.7
2887407.2
2838925.1
2790441.4
2741956
2693468.9
2644980.3
2596490
2547998
2499504.5
2451009.2
2402512.4
2354013.9
2305513.8
2257012
2208508.6
2160003.6
2111496.9
2062988.6
2014478.6
1965967
1917453.7
1868938.9
1820422.3
1771904.2
1723384.4
1674862.9
1626339.8
1577815.1
1529288.7
1480760.7
1432231
1383699.7
1335166.7
1286632.1
1238095.9
1189558
1141018.5
1092477.3
1043934.5
995390
946843.88
898296.12
849746.71
801195.64
752642.94
704088.58
655532.57
606974.91
558415.59
509854.61
461291.96
412727.63
364161.58
315593.77
267024.14
218452.71
169878.99
121299
72710.878
24198.947
)
;

boundaryField
{
    inlet
    {
        type            fixedFluxPressure;
        gradient        uniform 0;
        value           nonuniform List<scalar> 5(24132513 24122880 24105317 24069219 24005874);
    }
    outlet
    {
        type            totalPressure;
        rho             rho;
        psi             none;
        gamma           1;
        p0              uniform 0;
        value           uniform 0;
    }
    walls
    {
        type            fixedFluxPressure;
        gradient        uniform 0;
        value           nonuniform List<scalar> 
500
(
24005874
23981576
23948404
23909413
23866735
23821922
23775884
23729123
23681930
23634481
23586879
23539187
23491442
23443666
23395871
23348066
23300255
23252439
23204621
23156802
23108980
23061158
23013334
22965509
22917683
22869855
22822026
22774195
22726364
22678530
22630695
22582859
22535022
22487182
22439342
22391499
22343656
22295810
22247964
22200115
22152266
22104414
22056561
22008707
21960851
21912994
21865135
21817275
21769413
21721549
21673684
21625818
21577949
21530080
21482209
21434336
21386462
21338586
21290709
21242830
21194950
21147068
21099185
21051300
21003414
20955526
20907637
20859746
20811853
20763959
20716064
20668167
20620268
20572368
20524466
20476563
20428658
20380752
20332844
20284935
20237024
20189112
20141198
20093282
20045365
19997447
19949527
19901605
19853682
19805757
19757831
19709904
19661974
19614044
19566111
19518177
19470242
19422305
19374367
19326427
19278485
19230542
19182597
19134651
19086703
19038754
18990803
18942851
18894897
18846942
18798985
18751027
18703067
18655105
18607142
18559177
18511211
18463243
18415274
18367303
18319331
18271357
18223382
18175405
18127426
18079446
18031465
17983481
17935497
17887510
17839523
17791533
17743542
17695550
17647556
17599561
17551563
17503565
17455565
17407563
17359560
17311555
17263549
17215541
17167531
17119520
17071508
17023494
16975478
16927461
16879442
16831422
16783400
16735376
16687352
16639325
16591297
16543267
16495236
16447203
16399169
16351133
16303096
16255057
16207017
16158974
16110931
16062886
16014839
15966791
15918741
15870690
15822637
15774582
15726526
15678468
15630409
15582349
15534286
15486222
15438157
15390090
15342021
15293951
15245880
15197807
15149732
15101655
15053578
15005498
14957417
14909335
14861250
14813165
14765077
14716989
14668898
14620806
14572713
14524618
14476521
14428423
14380323
14332222
14284119
14236014
14187908
14139801
14091691
14043581
13995468
13947354
13899239
13851122
13803003
13754883
13706762
13658638
13610513
13562387
13514259
13466129
13417998
13369866
13321731
13273595
13225458
13177319
13129178
13081036
13032892
12984747
12936600
12888452
12840302
12792150
12743997
12695842
12647686
12599528
12551369
12503208
12455045
12406881
12358715
12310548
12262379
12214208
12166036
12117862
12069687
12021510
11973332
11925152
11876970
11828787
11780603
11732416
11684228
11636039
11587848
11539655
11491461
11443265
11395068
11346869
11298668
11250466
11202263
11154057
11105850
11057642
11009432
10961220
10913007
10864792
10816576
10768358
10720138
10671917
10623694
10575470
10527244
10479017
10430787
10382557
10334324
10286091
10237855
10189618
10141379
10093139
10044897
9996654
9948409
9900162.4
9851914.3
9803664.5
9755413.1
9707160.2
9658905.6
9610649.5
9562391.7
9514132.4
9465871.5
9417608.9
9369344.8
9321079.1
9272811.8
9224542.9
9176272.4
9128000.3
9079726.6
9031451.3
8983174.4
8934895.9
8886615.9
8838334.2
8790050.9
8741766
8693479.5
8645191.5
8596901.8
8548610.5
8500317.6
8452023.2
8403727.1
8355429.4
8307130.1
8258829.3
8210526.8
8162222.7
8113917
8065609.7
8017300.8
7968990.3
7920678.2
7872364.5
7824049.2
7775732.3
7727413.8
7679093.7
7630771.9
7582448.6
7534123.7
7485797.1
7437469
7389139.2
7340807.8
7292474.9
7244140.3
7195804.1
7147466.3
7099126.9
7050785.9
7002443.3
6954099
6905753.2
6857405.7
6809056.7
6760706
6712353.7
6663999.8
6615644.3
6567287.2
6518928.4
6470568.1
6422206.1
6373842.6
6325477.4
6277110.6
6228742.2
6180372.1
6132000.5
6083627.3
6035252.4
5986875.9
5938497.8
5890118.1
5841736.7
5793353.8
5744969.2
5696583
5648195.2
5599805.8
5551414.8
5503022.1
5454627.9
5406232
5357834.5
5309435.3
5261034.6
5212632.2
5164228.2
5115822.6
5067415.4
5019006.5
4970596
4922183.9
4873770.2
4825354.9
4776937.9
4728519.3
4680099.1
4631677.3
4583253.8
4534828.7
4486402
4437973.7
4389543.7
4341112.1
4292678.9
4244244.1
4195807.6
4147369.5
4098929.8
4050488.5
4002045.5
3953600.9
3905154.7
3856706.8
3808257.3
3759806.2
3711353.5
3662899.1
3614443.1
3565985.5
3517526.2
3469065.3
3420602.8
3372138.6
3323672.8
3275205.4
3226736.4
3178265.7
3129793.4
3081319.4
3032843.8
2984366.6
2935887.7
2887407.2
2838925.1
2790441.4
2741956
2693468.9
2644980.3
2596490
2547998
2499504.5
2451009.2
2402512.4
2354013.9
2305513.8
2257012
2208508.6
2160003.6
2111496.9
2062988.6
2014478.6
1965967
1917453.7
1868938.9
1820422.3
1771904.2
1723384.4
1674862.9
1626339.8
1577815.1
1529288.7
1480760.7
1432231
1383699.7
1335166.7
1286632.1
1238095.9
1189558
1141018.5
1092477.3
1043934.5
995390
946843.88
898296.12
849746.71
801195.64
752642.94
704088.58
655532.57
606974.91
558415.59
509854.61
461291.96
412727.63
364161.58
315593.77
267024.14
218452.71
169878.99
121299
72710.878
24198.947
)
;
    }
    centreline
    {
        type            symmetryPlane;
    }
    frontAndBack
    {
        type            empty;
    }
}


// ************************************************************************* //
