/*--------------------------------*- C++ -*----------------------------------*\
  =========                 |
  \\      /  F ield         | OpenFOAM: The Open Source CFD Toolbox
   \\    /   O peration     | Website:  https://openfoam.org
    \\  /    A nd           | Version:  6
     \\/     M anipulation  |
\*---------------------------------------------------------------------------*/
FoamFile
{
    version     2.0;
    format      ascii;
    class       volVectorField;
    location    "10000";
    object      U;
}
// * * * * * * * * * * * * * * * * * * * * * * * * * * * * * * * * * * * * * //

dimensions      [0 1 -1 0 0 0 0];

internalField   nonuniform List<vector> 
2500
(
(1.4683226 0 0.0083125564)
(1.4560306 0 0.015399414)
(1.4220501 -8.1636545e-20 0.017553145)
(1.3871206 -8.1446987e-20 0.016693078)
(1.3564224 0 0.014497519)
(1.3307088 0 0.011978425)
(1.3098582 0 0.0096022258)
(1.2933443 0 0.0075482108)
(1.2804634 0 0.0058575395)
(1.2705151 0 0.0045074154)
(1.2628808 8.0250598e-20 0.0034502878)
(1.2570447 -8.0085e-20 0.0026336122)
(1.2525907 7.9919641e-20 0.0020086592)
(1.2491909 0 0.0015337164)
(1.2465902 0 0.0011746338)
(1.2445926 7.9424276e-20 0.0009042121)
(1.2430487 0 0.00070117843)
(1.241845 7.9094297e-20 0.00054910351)
(1.2408961 -7.8929341e-20 0.00043541307)
(1.2401375 7.87644e-20 0.00035054752)
(1.2395209 7.8599469e-20 0.00028727597)
(1.2390101 0 0.00024015035)
(1.2385781 7.826963e-20 0.00020507837)
(1.2382048 7.810472e-20 0.00017899365)
(1.237875 7.7939814e-20 0.00015960298)
(1.2375777 0 0.00014519407)
(1.2373045 7.7610016e-20 0.00013449004)
(1.2370491 7.7445123e-20 0.0001265397)
(1.236807 0 0.00012063509)
(1.2365747 7.7115347e-20 0.00011624964)
(1.2363498 7.6950465e-20 0.00011299194)
(1.2361303 7.6785586e-20 0.00011057119)
(1.2359148 0 0.00010877144)
(1.2357024 7.6455839e-20 0.00010743234)
(1.2354921 7.6290971e-20 0.00010643491)
(1.2352835 7.6126106e-20 0.00010569085)
(1.2350762 0 0.00010513464)
(1.2348697 7.5796386e-20 0.00010471772)
(1.2346639 7.5631532e-20 0.00010440406)
(1.2344587 0 0.00010416692)
(1.2342538 7.5301833e-20 0.00010398651)
(1.2340492 7.5136988e-20 0.00010384814)
(1.2338448 7.4972147e-20 0.00010374093)
(1.2336406 0 0.0001036568)
(1.2334365 7.4642476e-20 0.00010358978)
(1.2332325 7.4477645e-20 0.00010353543)
(1.2330286 0 0.00010349048)
(1.2328248 7.4147995e-20 0.00010345248)
(1.232621 7.3983174e-20 0.00010341963)
(1.2324172 7.3818358e-20 0.0001033906)
(1.2322135 0 0.00010336439)
(1.2320098 7.3488735e-20 0.00010334028)
(1.2318061 7.3323928e-20 0.00010331772)
(1.2316024 7.3159126e-20 0.00010329631)
(1.2313988 0 0.00010327575)
(1.2311952 7.2829531e-20 0.00010325581)
(1.2309916 7.2664738e-20 0.00010323635)
(1.230788 0 0.00010321722)
(1.2305845 7.2335164e-20 0.00010319836)
(1.2303809 7.2170382e-20 0.00010317968)
(1.2301774 7.2005604e-20 0.00010316114)
(1.2299739 0 0.0001031427)
(1.2297704 7.1676058e-20 0.00010312433)
(1.2295669 7.1511291e-20 0.00010310603)
(1.2293634 0 0.00010308776)
(1.22916 7.1181766e-20 0.00010306952)
(1.2289566 7.1017009e-20 0.00010305131)
(1.2287531 7.0852256e-20 0.00010303312)
(1.2285497 0 0.00010301494)
(1.2283464 7.052276e-20 0.00010299677)
(1.228143 7.0358017e-20 0.00010297861)
(1.2279396 0 0.00010296046)
(1.2277363 7.0028542e-20 0.00010294231)
(1.227533 6.986381e-20 0.00010292417)
(1.2273296 6.9699082e-20 0.00010290604)
(1.2271264 0 0.00010288791)
(1.2269231 6.9369636e-20 0.00010286978)
(1.2267198 6.9204919e-20 0.00010285166)
(1.2265166 6.9040205e-20 0.00010283354)
(1.2263133 0 0.00010281543)
(1.2261101 6.8710788e-20 0.00010279731)
(1.2259069 6.8546085e-20 0.0001027792)
(1.2257037 0 0.00010276109)
(1.2255005 6.8216689e-20 0.00010274298)
(1.2252974 6.8051997e-20 0.00010272486)
(1.2250942 6.7887309e-20 0.00010270675)
(1.2248911 0 0.00010268864)
(1.224688 6.7557943e-20 0.00010267052)
(1.2244849 6.7393265e-20 0.00010265241)
(1.2242818 0 0.00010263429)
(1.2240788 6.7063921e-20 0.00010261618)
(1.2238757 6.6899255e-20 0.00010259807)
(1.2236727 6.6734592e-20 0.00010257995)
(1.2234697 0 0.00010256184)
(1.2232667 6.6405277e-20 0.00010254373)
(1.2230637 6.6240626e-20 0.00010252563)
(1.2228607 6.6075978e-20 0.00010250752)
(1.2226577 0 0.00010248942)
(1.2224548 6.5746693e-20 0.00010247132)
(1.2222519 6.5582056e-20 0.00010245322)
(1.2220489 0 0.00010243512)
(1.2218461 6.5252793e-20 0.00010241703)
(1.2216432 6.5088168e-20 0.00010239893)
(1.2214403 6.4923546e-20 0.00010238084)
(1.2212375 0 0.00010236275)
(1.2210346 6.4594313e-20 0.00010234467)
(1.2208318 6.4429702e-20 0.00010232658)
(1.220629 0 0.0001023085)
(1.2204262 6.4100492e-20 0.00010229042)
(1.2202234 6.3935893e-20 0.00010227234)
(1.2200207 6.3771297e-20 0.00010225426)
(1.2198179 0 0.00010223618)
(1.2196152 6.3442117e-20 0.0001022181)
(1.2194125 6.3277533e-20 0.00010220003)
(1.2192098 0 0.00010218195)
(1.2190071 6.2948376e-20 0.00010216388)
(1.2188044 6.2783803e-20 0.00010214581)
(1.2186018 6.2619234e-20 0.00010212774)
(1.2183992 0 0.00010210967)
(1.2181965 6.2290107e-20 0.00010209161)
(1.2179939 6.2125549e-20 0.00010207354)
(1.2177913 6.1960995e-20 0.00010205548)
(1.2175888 0 0.00010203741)
(1.2173862 6.1631899e-20 0.00010201935)
(1.2171837 6.1467357e-20 0.00010200129)
(1.2169811 0 0.00010198323)
(1.2167786 6.1138284e-20 0.00010196517)
(1.2165761 6.0973753e-20 0.00010194712)
(1.2163736 6.0809227e-20 0.00010192906)
(1.2161712 0 0.000101911)
(1.2159687 6.0480184e-20 0.00010189295)
(1.2157663 6.0315669e-20 0.0001018749)
(1.2155639 0 0.00010185684)
(1.2153615 5.998665e-20 0.00010183879)
(1.2151591 5.9822147e-20 0.00010182074)
(1.2149567 5.9657647e-20 0.00010180269)
(1.2147543 0 0.00010178464)
(1.214552 5.932866e-20 0.0001017666)
(1.2143497 5.9164172e-20 0.00010174855)
(1.2141473 0 0.0001017305)
(1.213945 5.8835208e-20 0.00010171246)
(1.2137428 5.8670731e-20 0.00010169442)
(1.2135405 5.8506259e-20 0.00010167637)
(1.2133382 0 0.00010165833)
(1.213136 5.8177327e-20 0.00010164029)
(1.2129338 5.8012866e-20 0.00010162226)
(1.2127316 5.784841e-20 0.00010160422)
(1.2125294 0 0.00010158618)
(1.2123272 5.7519509e-20 0.00010156815)
(1.2121251 5.7355064e-20 0.00010155011)
(1.2119229 0 0.00010153208)
(1.2117208 5.7026187e-20 0.00010151405)
(1.2115187 5.6861755e-20 0.00010149602)
(1.2113166 5.6697326e-20 0.00010147799)
(1.2111145 0 0.00010145996)
(1.2109124 5.6368481e-20 0.00010144194)
(1.2107104 5.6204064e-20 0.00010142392)
(1.2105083 0 0.0001014059)
(1.2103063 5.5875243e-20 0.00010138788)
(1.2101043 5.5710839e-20 0.00010136987)
(1.2099023 5.5546438e-20 0.00010135185)
(1.2097003 5.5382042e-20 0.00010133385)
(1.2094984 5.5217649e-20 0.00010131584)
(1.2092964 5.5053261e-20 0.00010129783)
(1.2090945 5.4888876e-20 0.00010127983)
(1.2088926 0 0.00010126183)
(1.2086907 5.456012e-20 0.00010124382)
(1.2084888 5.4395748e-20 0.00010122582)
(1.2082869 5.4231379e-20 0.00010120782)
(1.2080851 5.4067015e-20 0.00010118982)
(1.2078832 5.3902655e-20 0.00010117182)
(1.2076814 5.37383e-20 0.00010115383)
(1.2074796 0 0.00010113583)
(1.2072778 5.34096e-20 0.00010111783)
(1.2070761 5.3245257e-20 0.00010109984)
(1.2068743 0 0.00010108185)
(1.2066725 5.2916582e-20 0.00010106385)
(1.2064708 5.275225e-20 0.00010104587)
(1.2062691 5.2587923e-20 0.00010102788)
(1.2060674 0 0.00010100989)
(1.2058657 5.2259281e-20 0.00010099191)
(1.2056641 5.2094967e-20 0.00010097393)
(1.2054624 0 0.00010095595)
(1.2052608 5.1766349e-20 0.00010093797)
(1.2050591 5.1602047e-20 0.00010091999)
(1.2048575 5.1437749e-20 0.00010090202)
(1.2046559 5.1273455e-20 0.00010088404)
(1.2044544 5.1109165e-20 0.00010086607)
(1.2042528 5.0944879e-20 0.00010084809)
(1.2040513 5.0780598e-20 0.00010083012)
(1.2038497 0 0.00010081215)
(1.2036482 5.0452047e-20 0.00010079418)
(1.2034467 5.0287778e-20 0.00010077621)
(1.2032452 5.0123514e-20 0.00010075824)
(1.2030438 4.9959253e-20 0.00010074027)
(1.2028423 4.9794997e-20 0.0001007223)
(1.2026409 4.9630745e-20 0.00010070433)
(1.2024394 0 0.00010068637)
(1.202238 4.9302253e-20 0.0001006684)
(1.2020366 4.9138013e-20 0.00010065043)
(1.2018353 0 0.00010063247)
(1.2016339 4.8809547e-20 0.00010061451)
(1.2014326 4.864532e-20 0.00010059655)
(1.2012312 4.8481098e-20 0.00010057859)
(1.2010299 0 0.00010056063)
(1.2008286 4.8152666e-20 0.00010054267)
(1.2006273 4.7988456e-20 0.00010052472)
(1.2004261 0 0.00010050677)
(1.2002248 4.7660049e-20 0.00010048881)
(1.2000236 4.7495852e-20 0.00010047086)
(1.1998224 4.733166e-20 0.00010045291)
(1.1996212 4.7167471e-20 0.00010043497)
(1.19942 4.7003287e-20 0.00010041702)
(1.1992188 4.6839107e-20 0.00010039907)
(1.1990176 0 0.00010038113)
(1.1988165 0 0.00010036319)
(1.1986153 4.6346594e-20 0.00010034525)
(1.1984142 4.6182431e-20 0.00010032732)
(1.1982131 4.6018273e-20 0.00010030938)
(1.198012 0 0.00010029144)
(1.197811 4.568997e-20 0.00010027351)
(1.1976099 4.5525825e-20 0.00010025558)
(1.1974089 0 0.00010023765)
(1.1972079 4.5197547e-20 0.00010021972)
(1.1970069 0 0.00010020179)
(1.1968059 0 0.00010018386)
(1.1966049 4.4705164e-20 0.00010016594)
(1.1964039 4.4541045e-20 0.00010014802)
(1.196203 4.437693e-20 0.00010013009)
(1.1960021 4.421282e-20 0.00010011217)
(1.1958011 4.4048714e-20 0.00010009425)
(1.1956002 4.3884613e-20 0.00010007633)
(1.1953994 4.3720516e-20 0.00010005842)
(1.1951985 4.3556423e-20 0.0001000405)
(1.1949976 0 0.00010002259)
(1.1947968 4.3228251e-20 0.00010000468)
(1.194596 4.3064171e-20 9.9986766e-05)
(1.1943952 4.2900096e-20 9.9968857e-05)
(1.1941944 4.2736026e-20 9.9950949e-05)
(1.1939936 0 9.9933042e-05)
(1.1937928 0 9.9915137e-05)
(1.1935921 4.224384e-20 9.9897233e-05)
(1.1933914 4.2079787e-20 9.9879331e-05)
(1.1931907 4.1915739e-20 9.986143e-05)
(1.19299 0 9.9843531e-05)
(1.1927893 4.1587656e-20 9.9825634e-05)
(1.1925886 4.1423621e-20 9.9807738e-05)
(1.192388 0 9.9789844e-05)
(1.1921873 4.1095564e-20 9.977195e-05)
(1.1919867 0 9.9754059e-05)
(1.1917861 0 9.9736168e-05)
(1.1915855 4.0603513e-20 9.971828e-05)
(1.1913849 4.0439505e-20 9.9700392e-05)
(1.1911844 4.0275501e-20 9.9682507e-05)
(1.1909838 4.0111502e-20 9.9664622e-05)
(1.1907833 3.9947508e-20 9.964674e-05)
(1.1905828 3.9783518e-20 9.9628858e-05)
(1.1903823 3.9619532e-20 9.9610978e-05)
(1.1901818 3.9455551e-20 9.9593099e-05)
(1.1899813 0 9.9575221e-05)
(1.1897809 3.9127603e-20 9.9557345e-05)
(1.1895804 3.8963636e-20 9.953947e-05)
(1.18938 3.8799673e-20 9.9521595e-05)
(1.1891796 3.8635715e-20 9.9503723e-05)
(1.1889792 0 9.9485852e-05)
(1.1887788 0 9.9467982e-05)
(1.1885785 3.8143867e-20 9.9450113e-05)
(1.1883781 3.7979927e-20 9.9432245e-05)
(1.1881778 3.7815992e-20 9.9414377e-05)
(1.1879775 0 9.9396511e-05)
(1.1877772 3.7488135e-20 9.9378644e-05)
(1.1875769 3.7324214e-20 9.936078e-05)
(1.1873766 0 9.9342916e-05)
(1.1871764 3.6996384e-20 9.9325054e-05)
(1.1869762 0 9.9307193e-05)
(1.1867759 0 9.9289334e-05)
(1.1865757 3.6504675e-20 9.9271475e-05)
(1.1863755 3.6340781e-20 9.9253617e-05)
(1.1861754 3.6176892e-20 9.9235759e-05)
(1.1859752 3.6013007e-20 9.9217903e-05)
(1.1857751 3.5849127e-20 9.9200047e-05)
(1.1855749 3.5685252e-20 9.9182193e-05)
(1.1853748 3.5521382e-20 9.9164339e-05)
(1.1851747 3.5357516e-20 9.9146488e-05)
(1.1849746 0 9.9128638e-05)
(1.1847746 3.5029798e-20 9.911079e-05)
(1.1845745 3.4865946e-20 9.9092943e-05)
(1.1843745 3.4702099e-20 9.9075097e-05)
(1.1841745 3.4538256e-20 9.9057252e-05)
(1.1839745 0 9.9039409e-05)
(1.1837745 0 9.9021567e-05)
(1.1835745 3.4046757e-20 9.9003727e-05)
(1.1833745 3.3882933e-20 9.8985887e-05)
(1.1831746 3.3719114e-20 9.8968051e-05)
(1.1829747 0 9.8950215e-05)
(1.1827747 3.339149e-20 9.8932382e-05)
(1.1825748 3.3227685e-20 9.8914551e-05)
(1.182375 0 9.8896722e-05)
(1.1821751 3.290009e-20 9.8878894e-05)
(1.1819752 0 9.8861068e-05)
(1.1817754 3.2572513e-20 9.8843243e-05)
(1.1815756 3.2408732e-20 9.882542e-05)
(1.1813758 3.2244956e-20 9.8807598e-05)
(1.181176 3.2081184e-20 9.8789778e-05)
(1.1809762 3.1917418e-20 9.877196e-05)
(1.1807765 3.1753655e-20 9.8754144e-05)
(1.1805767 3.1589898e-20 9.8736329e-05)
(1.180377 3.1426146e-20 9.8718517e-05)
(1.1801773 3.1262398e-20 9.8700705e-05)
(1.1799776 0 9.8682896e-05)
(1.1797779 3.0934917e-20 9.8665088e-05)
(1.1795782 3.0771184e-20 9.8647282e-05)
(1.1793786 3.0607456e-20 9.8629476e-05)
(1.1791789 3.0443732e-20 9.8611671e-05)
(1.1789793 0 9.8593866e-05)
(1.1787797 0 9.8576062e-05)
(1.1785801 2.995259e-20 9.8558258e-05)
(1.1783806 2.9788886e-20 9.8540455e-05)
(1.178181 2.9625187e-20 9.8522653e-05)
(1.1779815 0 9.8504854e-05)
(1.1777819 0 9.8487058e-05)
(1.1775824 0 9.8469267e-05)
(1.1773829 0 9.845148e-05)
(1.1771834 0 9.8433698e-05)
(1.176984 0 9.841592e-05)
(1.1767845 0 9.8398146e-05)
(1.1765851 2.8315767e-20 9.8380375e-05)
(1.1763857 0 9.8362607e-05)
(1.1761863 0 9.8344838e-05)
(1.1759869 2.7824815e-20 9.8327071e-05)
(1.1757875 0 9.8309302e-05)
(1.1755881 0 9.8291532e-05)
(1.1753888 0 9.8273759e-05)
(1.1751895 2.7170281e-20 9.8255986e-05)
(1.1749902 0 9.823821e-05)
(1.1747909 0 9.8220434e-05)
(1.1745916 2.6679433e-20 9.8202656e-05)
(1.1743923 0 9.8184878e-05)
(1.1741931 0 9.8167099e-05)
(1.1739938 0 9.8149322e-05)
(1.1737946 2.6025037e-20 9.8131544e-05)
(1.1735954 0 9.8113766e-05)
(1.1733962 0 9.8095989e-05)
(1.1731971 0 9.8078212e-05)
(1.1729979 2.5370722e-20 9.8060436e-05)
(1.1727988 0 9.804266e-05)
(1.1725996 0 9.8024886e-05)
(1.1724005 0 9.8007115e-05)
(1.1722014 0 9.7989346e-05)
(1.1720023 0 9.797158e-05)
(1.1718033 0 9.7953816e-05)
(1.1716042 2.4225861e-20 9.7936056e-05)
(1.1714052 0 9.7918297e-05)
(1.1712062 0 9.7900542e-05)
(1.1710072 2.3735282e-20 9.7882787e-05)
(1.1708082 0 9.7865035e-05)
(1.1706092 0 9.7847284e-05)
(1.1704103 0 9.7829536e-05)
(1.1702113 2.3081248e-20 9.781179e-05)
(1.1700124 0 9.7794047e-05)
(1.1698135 0 9.7776305e-05)
(1.1696146 2.2590775e-20 9.7758567e-05)
(1.1694157 0 9.7740829e-05)
(1.1692169 0 9.7723094e-05)
(1.169018 0 9.770536e-05)
(1.1688192 2.1936882e-20 9.7687627e-05)
(1.1686204 0 9.7669895e-05)
(1.1684216 0 9.7652165e-05)
(1.1682228 0 9.7634436e-05)
(1.168024 2.1283071e-20 9.7616709e-05)
(1.1678252 0 9.7598983e-05)
(1.1676265 0 9.758126e-05)
(1.1674278 0 9.7563537e-05)
(1.1672291 0 9.7545815e-05)
(1.1670304 0 9.7528094e-05)
(1.1668317 0 9.7510375e-05)
(1.166633 2.01391e-20 9.7492656e-05)
(1.1664344 0 9.7474939e-05)
(1.1662358 0 9.7457223e-05)
(1.1660371 1.9648904e-20 9.7439508e-05)
(1.1658385 0 9.7421795e-05)
(1.16564 0 9.7404083e-05)
(1.1654414 0 9.7386373e-05)
(1.1652428 1.8995381e-20 9.7368663e-05)
(1.1650443 0 9.7350955e-05)
(1.1648458 0 9.7333248e-05)
(1.1646473 1.8505294e-20 9.7315541e-05)
(1.1644488 0 9.7297836e-05)
(1.1642503 0 9.7280132e-05)
(1.1640518 0 9.7262431e-05)
(1.1638534 1.7851918e-20 9.724473e-05)
(1.163655 0 9.7227031e-05)
(1.1634565 0 9.7209333e-05)
(1.1632581 0 9.7191637e-05)
(1.1630598 1.7198625e-20 9.7173941e-05)
(1.1628614 0 9.7156247e-05)
(1.162663 0 9.7138553e-05)
(1.1624647 0 9.7120861e-05)
(1.1622664 0 9.7103171e-05)
(1.1620681 0 9.7085482e-05)
(1.1618698 0 9.7067795e-05)
(1.1616715 1.6055566e-20 9.7050109e-05)
(1.1614732 0 9.7032425e-05)
(1.161275 0 9.7014742e-05)
(1.1610768 1.5565763e-20 9.6997059e-05)
(1.1608786 0 9.6979379e-05)
(1.1606804 0 9.6961698e-05)
(1.1604822 0 9.694402e-05)
(1.160284 1.4912766e-20 9.6926343e-05)
(1.1600858 0 9.6908668e-05)
(1.1598877 0 9.6890995e-05)
(1.1596896 0 9.6873323e-05)
(1.1594915 0 9.6855652e-05)
(1.1592934 0 9.6837983e-05)
(1.1590953 0 9.6820314e-05)
(1.1588973 1.3770228e-20 9.6802647e-05)
(1.1586992 0 9.6784981e-05)
(1.1585012 0 9.6767317e-05)
(1.1583032 0 9.6749653e-05)
(1.1581052 1.3117467e-20 9.6731992e-05)
(1.1579072 0 9.6714332e-05)
(1.1577092 0 9.6696674e-05)
(1.1575113 0 9.6679017e-05)
(1.1573133 0 9.6661362e-05)
(1.1571154 0 9.6643707e-05)
(1.1569175 0 9.6626054e-05)
(1.1567196 1.1975344e-20 9.6608401e-05)
(1.1565218 0 9.6590751e-05)
(1.1563239 0 9.6573101e-05)
(1.1561261 1.1485944e-20 9.6555454e-05)
(1.1559282 0 9.6537808e-05)
(1.1557304 0 9.6520164e-05)
(1.1555326 0 9.6502521e-05)
(1.1553348 1.0833487e-20 9.6484879e-05)
(1.1551371 0 9.6467238e-05)
(1.1549393 0 9.6449599e-05)
(1.1547416 0 9.643196e-05)
(1.1545439 0 9.6414323e-05)
(1.1543462 0 9.6396688e-05)
(1.1541485 0 9.6379054e-05)
(1.1539508 9.6918977e-21 9.6361422e-05)
(1.1537531 0 9.6343792e-05)
(1.1535555 0 9.6326162e-05)
(1.1533579 0 9.6308535e-05)
(1.1531603 9.0396823e-21 9.6290907e-05)
(1.1529627 0 9.6273282e-05)
(1.1527651 0 9.6255657e-05)
(1.1525675 0 9.6238035e-05)
(1.15237 0 9.6220413e-05)
(1.1521724 0 9.6202794e-05)
(1.1519749 0 9.6185177e-05)
(1.1517774 7.8985186e-21 9.6167561e-05)
(1.1515799 0 9.6149948e-05)
(1.1513825 0 9.6132336e-05)
(1.151185 7.409532e-21 9.6114726e-05)
(1.1509876 0 9.6097119e-05)
(1.1507901 0 9.6079515e-05)
(1.1505927 0 9.6061915e-05)
(1.1503953 6.757628e-21 9.6044319e-05)
(1.150198 0 9.6026731e-05)
(1.1500006 0 9.6009149e-05)
(1.1498033 0 9.5991579e-05)
(1.1496059 0 9.597402e-05)
(1.1494086 0 9.595648e-05)
(1.1492113 0 9.5938961e-05)
(1.149014 5.6170123e-21 9.5921474e-05)
(1.1488167 0 9.5904028e-05)
(1.1486195 0 9.5886638e-05)
(1.1484223 0 9.5869325e-05)
(1.148225 4.9653561e-21 9.5852117e-05)
(1.1480278 0 9.5835051e-05)
(1.1478306 0 9.5818178e-05)
(1.1476334 0 9.5801568e-05)
(1.1474363 0 9.5785319e-05)
(1.1472391 0 9.576956e-05)
(1.147042 0 9.5754472e-05)
(1.1468448 3.8251762e-21 9.5740301e-05)
(1.1466477 0 9.572738e-05)
(1.1464506 0 9.5716166e-05)
(1.1462534 0 9.5707277e-05)
(1.1460563 3.1737703e-21 9.5701554e-05)
(1.1458592 0 9.5700134e-05)
(1.145662 0 9.5704555e-05)
(1.1454648 2.6852761e-21 9.5716886e-05)
(1.1452675 0 9.5739898e-05)
(1.1450702 0 9.5777284e-05)
(1.1448728 0 9.583392e-05)
(1.1446751 0 9.591618e-05)
(1.1444773 0 9.603226e-05)
(1.1442792 0 9.6192463e-05)
(1.1440807 1.5456583e-21 9.6409264e-05)
(1.1438816 0 9.6696891e-05)
(1.1436819 0 9.7069922e-05)
(1.1434813 0 9.7538512e-05)
(1.1432796 8.9457829e-22 9.8093595e-05)
(1.1430766 0 9.8691762e-05)
(1.1428729 0 9.9309881e-05)
(1.1426691 0 9.9857673e-05)
(1.1424527 0 9.8649155e-05)
(1.1422206 0 9.201769e-05)
(1.3474573 0 0.02455851)
(1.3360219 0 0.045692828)
(1.3056106 -1.1423489e-19 0.051189054)
(1.2743492 -1.1399256e-19 0.048279222)
(1.2472839 0 0.041819579)
(1.2247796 0 0.034535051)
(1.2065283 0 0.027696655)
(1.1920318 0 0.021794216)
(1.1806835 0 0.016934625)
(1.1718852 0 0.013049409)
(1.165108 1.1238258e-19 0.010002807)
(1.1599091 -1.121546e-19 0.0076455588)
(1.155929 1.1192667e-19 0.0058390761)
(1.1528823 0 0.0044644144)
(1.1505459 0 0.0034239055)
(1.1487473 1.1124305e-19 0.0026395384)
(1.1473543 0 0.0020501425)
(1.1462663 1.1078734e-19 0.0016083687)
(1.1454069 -1.1055948e-19 0.001277908)
(1.1447186 1.1033162e-19 0.0010311118)
(1.1441581 1.1010375e-19 0.00084703854)
(1.1436931 0 0.00070989192)
(1.1432991 1.09648e-19 0.00060779575)
(1.1429581 1.0942011e-19 0.00053184423)
(1.1426564 1.0919221e-19 0.00047537289)
(1.142384 0 0.00043340296)
(1.1421334 1.087364e-19 0.0004022201)
(1.141899 1.0850848e-19 0.00037905637)
(1.1416766 0 0.00036185101)
(1.141463 1.0805262e-19 0.00034907094)
(1.1412561 1.0782468e-19 0.00033957635)
(1.1410542 1.0759673e-19 0.00033252028)
(1.1408558 0 0.00032727364)
(1.1406602 1.071408e-19 0.00032336933)
(1.1404666 1.0691283e-19 0.00032046066)
(1.1402745 1.0668484e-19 0.00031829036)
(1.1400835 0 0.00031666755)
(1.1398934 1.0622885e-19 0.00031545067)
(1.1397038 1.0600085e-19 0.00031453471)
(1.1395148 0 0.00031384181)
(1.139326 1.0554481e-19 0.00031331424)
(1.1391376 1.0531678e-19 0.0003129092)
(1.1389493 1.0508874e-19 0.00031259497)
(1.1387611 0 0.00031234803)
(1.1385731 1.0463263e-19 0.00031215095)
(1.1383852 1.0440457e-19 0.00031199081)
(1.1381973 0 0.00031185804)
(1.1380095 1.0394841e-19 0.00031174554)
(1.1378218 1.0372033e-19 0.00031164807)
(1.1376341 1.0349223e-19 0.00031156171)
(1.1374464 0 0.0003114836)
(1.1372587 1.0303601e-19 0.00031141159)
(1.1370711 1.0280789e-19 0.0003113441)
(1.1368834 1.0257976e-19 0.00031127996)
(1.1366958 0 0.0003112183)
(1.1365082 1.0212348e-19 0.00031115847)
(1.1363207 1.0189533e-19 0.0003111)
(1.1361331 0 0.00031104253)
(1.1359456 1.01439e-19 0.0003109858)
(1.1357581 1.0121082e-19 0.00031092963)
(1.1355706 1.0098263e-19 0.00031087385)
(1.1353831 0 0.00031081838)
(1.1351956 1.0052624e-19 0.00031076312)
(1.1350081 1.0029803e-19 0.00031070803)
(1.1348207 0 0.00031065306)
(1.1346332 9.9841587e-20 0.00031059818)
(1.1344458 9.9613353e-20 0.00031054336)
(1.1342584 9.9385112e-20 0.00031048861)
(1.134071 0 0.00031043389)
(1.1338836 9.8928605e-20 0.0003103792)
(1.1336963 9.870034e-20 0.00031032454)
(1.1335089 0 0.0003102699)
(1.1333216 9.8243786e-20 0.00031021528)
(1.1331343 9.8015496e-20 0.00031016068)
(1.132947 9.7787199e-20 0.00031010609)
(1.1327597 0 0.00031005152)
(1.1325724 9.7330581e-20 0.00030999696)
(1.1323851 9.710226e-20 0.00030994242)
(1.1321979 9.6873931e-20 0.00030988788)
(1.1320106 0 0.00030983335)
(1.1318234 9.641725e-20 0.00030977882)
(1.1316362 9.6188897e-20 0.0003097243)
(1.131449 0 0.00030966978)
(1.1312618 9.5732168e-20 0.00030961526)
(1.1310747 9.5503791e-20 0.00030956074)
(1.1308875 9.5275407e-20 0.00030950621)
(1.1307004 0 0.00030945169)
(1.1305132 9.4818615e-20 0.00030939716)
(1.1303261 9.4590207e-20 0.00030934264)
(1.130139 0 0.00030928811)
(1.129952 9.4133368e-20 0.00030923359)
(1.1297649 9.3904936e-20 0.00030917907)
(1.1295778 9.3676497e-20 0.00030912455)
(1.1293908 0 0.00030907004)
(1.1292038 9.3219594e-20 0.00030901553)
(1.1290168 9.2991131e-20 0.00030896103)
(1.1288298 9.2762661e-20 0.00030890653)
(1.1286428 0 0.00030885204)
(1.1284558 9.2305696e-20 0.00030879755)
(1.1282689 9.2077201e-20 0.00030874307)
(1.1280819 0 0.0003086886)
(1.127895 9.162019e-20 0.00030863413)
(1.1277081 9.1391672e-20 0.00030857967)
(1.1275212 9.1163147e-20 0.00030852521)
(1.1273343 0 0.00030847076)
(1.1271474 9.0706072e-20 0.00030841632)
(1.1269606 9.0477524e-20 0.00030836188)
(1.1267737 0 0.00030830744)
(1.1265869 9.0020403e-20 0.00030825301)
(1.1264001 8.9791831e-20 0.00030819859)
(1.1262133 8.9563251e-20 0.00030814417)
(1.1260265 0 0.00030808975)
(1.1258397 8.9106068e-20 0.00030803534)
(1.125653 8.8877465e-20 0.00030798093)
(1.1254662 0 0.00030792653)
(1.1252795 8.8420235e-20 0.00030787213)
(1.1250928 8.8191609e-20 0.00030781774)
(1.1249061 8.7962975e-20 0.00030776335)
(1.1247194 0 0.00030770896)
(1.1245327 8.7505684e-20 0.00030765458)
(1.1243461 8.7277027e-20 0.0003076002)
(1.1241594 8.7048362e-20 0.00030754582)
(1.1239728 0 0.00030749145)
(1.1237862 8.659101e-20 0.00030743708)
(1.1235996 8.6362322e-20 0.00030738272)
(1.123413 0 0.00030732836)
(1.1232264 8.5904923e-20 0.000307274)
(1.1230398 8.5676212e-20 0.00030721964)
(1.1228533 8.5447494e-20 0.00030716529)
(1.1226668 0 0.00030711094)
(1.1224803 8.4990034e-20 0.00030705659)
(1.1222937 8.4761292e-20 0.00030700225)
(1.1221073 0 0.00030694791)
(1.1219208 8.4303787e-20 0.00030689358)
(1.1217343 8.4075022e-20 0.00030683924)
(1.1215479 8.384625e-20 0.00030678492)
(1.1213614 0 0.00030673059)
(1.121175 8.3388684e-20 0.00030667626)
(1.1209886 8.3159889e-20 0.00030662194)
(1.1208022 0 0.00030656762)
(1.1206159 8.2702277e-20 0.00030651331)
(1.1204295 8.2473459e-20 0.00030645899)
(1.1202431 8.2244634e-20 0.00030640469)
(1.1200568 0 0.00030635039)
(1.1198705 8.1786961e-20 0.00030629609)
(1.1196842 8.1558113e-20 0.00030624179)
(1.1194979 8.1329258e-20 0.0003061875)
(1.1193116 0 0.00030613321)
(1.1191254 8.0871525e-20 0.00030607892)
(1.1189391 8.0642647e-20 0.00030602464)
(1.1187529 0 0.00030597036)
(1.1185666 8.0184868e-20 0.00030591608)
(1.1183804 7.9955967e-20 0.00030586181)
(1.1181942 7.9727059e-20 0.00030580754)
(1.1180081 0 0.00030575328)
(1.1178219 7.9269221e-20 0.00030569903)
(1.1176358 7.904029e-20 0.00030564478)
(1.1174496 0 0.00030559054)
(1.1172635 7.8582406e-20 0.00030553631)
(1.1170774 7.8353453e-20 0.00030548209)
(1.1168913 7.8124493e-20 0.00030542787)
(1.1167052 7.7895525e-20 0.00030537366)
(1.1165192 7.7666549e-20 0.00030531946)
(1.1163331 7.7437567e-20 0.00030526526)
(1.1161471 7.7208576e-20 0.00030521107)
(1.115961 0 0.00030515688)
(1.115775 7.6750573e-20 0.00030510269)
(1.115589 7.652156e-20 0.0003050485)
(1.1154031 7.629254e-20 0.00030499432)
(1.1152171 7.6063513e-20 0.00030494014)
(1.1150311 7.5834478e-20 0.00030488596)
(1.1148452 7.5605435e-20 0.00030483179)
(1.1146593 0 0.00030477761)
(1.1144734 7.5147328e-20 0.00030472345)
(1.1142875 7.4918264e-20 0.00030466928)
(1.1141016 0 0.00030461512)
(1.1139157 7.4460112e-20 0.00030456097)
(1.1137299 7.4231026e-20 0.00030450682)
(1.113544 7.4001932e-20 0.00030445267)
(1.1133582 0 0.00030439854)
(1.1131724 7.3543721e-20 0.0003043444)
(1.1129866 7.3314605e-20 0.00030429028)
(1.1128008 0 0.00030423616)
(1.112615 7.2856351e-20 0.00030418204)
(1.1124293 7.2627212e-20 0.00030412793)
(1.1122435 7.2398067e-20 0.00030407382)
(1.1120578 7.2168914e-20 0.00030401971)
(1.1118721 7.1939754e-20 0.00030396561)
(1.1116864 7.1710586e-20 0.0003039115)
(1.1115007 7.1481411e-20 0.0003038574)
(1.1113151 0 0.0003038033)
(1.1111294 7.102304e-20 0.00030374921)
(1.1109438 7.0793843e-20 0.00030369512)
(1.1107581 7.0564639e-20 0.00030364103)
(1.1105725 7.0335428e-20 0.00030358694)
(1.1103869 7.0106209e-20 0.00030353286)
(1.1102013 6.9876983e-20 0.00030347877)
(1.1100158 0 0.00030342469)
(1.1098302 6.941851e-20 0.00030337061)
(1.1096447 6.9189262e-20 0.00030331654)
(1.1094591 0 0.00030326247)
(1.1092736 6.8730745e-20 0.0003032084)
(1.1090881 6.8501476e-20 0.00030315434)
(1.1089026 6.8272199e-20 0.00030310028)
(1.1087172 0 0.00030304623)
(1.1085317 6.7813625e-20 0.00030299218)
(1.1083463 6.7584326e-20 0.00030293813)
(1.1081608 0 0.00030288409)
(1.1079754 6.7125708e-20 0.00030283005)
(1.10779 6.6896388e-20 0.00030277602)
(1.1076046 6.6667061e-20 0.00030272199)
(1.1074193 6.6437727e-20 0.00030266797)
(1.1072339 6.6208386e-20 0.00030261395)
(1.1070486 6.5979037e-20 0.00030255994)
(1.1068632 0 0.00030250593)
(1.1066779 0 0.00030245193)
(1.1064926 6.5290949e-20 0.00030239793)
(1.1063073 6.5061572e-20 0.00030234394)
(1.1061221 6.4832187e-20 0.00030228995)
(1.1059368 0 0.00030223596)
(1.1057515 6.4373397e-20 0.00030218198)
(1.1055663 6.4143992e-20 0.000302128)
(1.1053811 0 0.00030207403)
(1.1051959 6.3685159e-20 0.00030202006)
(1.1050107 0 0.0003019661)
(1.1048255 0 0.00030191214)
(1.1046404 6.2996857e-20 0.00030185819)
(1.1044552 6.2767408e-20 0.00030180423)
(1.1042701 6.2537953e-20 0.00030175029)
(1.104085 6.230849e-20 0.00030169634)
(1.1038999 6.2079021e-20 0.0003016424)
(1.1037148 6.1849544e-20 0.00030158847)
(1.1035297 6.162006e-20 0.00030153454)
(1.1033447 6.139057e-20 0.00030148062)
(1.1031596 0 0.0003014267)
(1.1029746 6.0931567e-20 0.00030137278)
(1.1027896 6.0702055e-20 0.00030131887)
(1.1026045 6.0472536e-20 0.00030126496)
(1.1024196 6.0243011e-20 0.00030121105)
(1.1022346 0 0.00030115715)
(1.1020496 0 0.00030110325)
(1.1018647 5.9554391e-20 0.00030104936)
(1.1016797 5.9324837e-20 0.00030099548)
(1.1014948 5.9095276e-20 0.0003009416)
(1.1013099 0 0.00030088772)
(1.101125 5.8636133e-20 0.00030083385)
(1.1009401 5.8406551e-20 0.00030077998)
(1.1007553 0 0.00030072611)
(1.1005704 5.7947367e-20 0.00030067225)
(1.1003856 0 0.0003006184)
(1.1002008 0 0.00030056455)
(1.100016 5.7258537e-20 0.0003005107)
(1.0998312 5.7028914e-20 0.00030045686)
(1.0996464 5.6799283e-20 0.00030040303)
(1.0994616 5.6569646e-20 0.00030034919)
(1.0992769 5.6340001e-20 0.00030029536)
(1.0990922 5.611035e-20 0.00030024154)
(1.0989074 5.5880692e-20 0.00030018772)
(1.0987227 5.5651027e-20 0.0003001339)
(1.098538 0 0.00030008009)
(1.0983534 5.5191676e-20 0.00030002628)
(1.0981687 5.496199e-20 0.00029997247)
(1.097984 5.4732297e-20 0.00029991867)
(1.0977994 5.4502598e-20 0.00029986487)
(1.0976148 0 0.00029981108)
(1.0974302 0 0.00029975729)
(1.0972456 5.3813458e-20 0.0002997035)
(1.097061 5.3583731e-20 0.00029964972)
(1.0968764 5.3353997e-20 0.00029959594)
(1.0966919 0 0.00029954215)
(1.0965074 5.2894509e-20 0.00029948838)
(1.0963228 5.2664754e-20 0.00029943461)
(1.0961383 0 0.00029938084)
(1.0959538 5.2205225e-20 0.00029932707)
(1.0957693 0 0.00029927331)
(1.0955849 0 0.00029921955)
(1.0954004 5.151588e-20 0.0002991658)
(1.095216 5.1286085e-20 0.00029911204)
(1.0950316 5.1056283e-20 0.00029905829)
(1.0948472 5.0826474e-20 0.00029900454)
(1.0946628 5.0596659e-20 0.0002989508)
(1.0944784 5.0366836e-20 0.00029889705)
(1.094294 5.0137007e-20 0.00029884332)
(1.0941097 4.9907171e-20 0.00029878959)
(1.0939253 0 0.00029873586)
(1.093741 4.944748e-20 0.00029868213)
(1.0935567 4.9217624e-20 0.00029862841)
(1.0933724 4.8987761e-20 0.0002985747)
(1.0931881 4.8757891e-20 0.00029852098)
(1.0930038 0 0.00029846727)
(1.0928196 0 0.00029841357)
(1.0926354 4.8068242e-20 0.00029835987)
(1.0924511 4.7838346e-20 0.00029830618)
(1.0922669 4.7608443e-20 0.00029825249)
(1.0920827 0 0.0002981988)
(1.0918985 4.7148617e-20 0.00029814513)
(1.0917144 4.6918694e-20 0.00029809145)
(1.0915302 0 0.00029803778)
(1.0913461 4.6458828e-20 0.00029798412)
(1.091162 0 0.00029793046)
(1.0909778 4.5998935e-20 0.00029787681)
(1.0907937 4.5768978e-20 0.00029782316)
(1.0906097 4.5539015e-20 0.00029776952)
(1.0904256 4.5309046e-20 0.00029771588)
(1.0902415 4.5079069e-20 0.00029766225)
(1.0900575 4.4849086e-20 0.00029760862)
(1.0898735 4.4619097e-20 0.000297555)
(1.0896895 4.4389101e-20 0.00029750138)
(1.0895055 4.4159098e-20 0.00029744777)
(1.0893215 0 0.00029739416)
(1.0891375 4.3699073e-20 0.00029734056)
(1.0889536 4.346905e-20 0.00029728696)
(1.0887696 4.3239021e-20 0.00029723336)
(1.0885857 4.3008985e-20 0.00029717977)
(1.0884018 0 0.00029712618)
(1.0882179 0 0.00029707259)
(1.088034 4.2318839e-20 0.000297019)
(1.0878501 4.2088777e-20 0.00029696541)
(1.0876663 4.1858709e-20 0.00029691183)
(1.0874824 0 0.00029685825)
(1.0872986 0 0.00029680468)
(1.0871148 0 0.00029675113)
(1.086931 0 0.00029669759)
(1.0867472 0 0.00029664406)
(1.0865634 0 0.00029659055)
(1.0863797 0 0.00029653705)
(1.0861959 4.0017926e-20 0.00029648355)
(1.0860122 0 0.00029643007)
(1.0858285 0 0.00029637658)
(1.0856448 3.9327526e-20 0.0002963231)
(1.0854611 0 0.00029626961)
(1.0852774 0 0.00029621612)
(1.0850938 0 0.00029616263)
(1.0849101 3.8406901e-20 0.00029610912)
(1.0847265 0 0.00029605562)
(1.0845429 0 0.00029600211)
(1.0843593 3.7716365e-20 0.0002959486)
(1.0841757 0 0.00029589509)
(1.0839921 0 0.00029584158)
(1.0838086 0 0.00029578807)
(1.083625 3.679556e-20 0.00029573456)