/*--------------------------------*- C++ -*----------------------------------*\
  =========                 |
  \\      /  F ield         | OpenFOAM: The Open Source CFD Toolbox
   \\    /   O peration     | Website:  https://openfoam.org
    \\  /    A nd           | Version:  6
     \\/     M anipulation  |
\*---------------------------------------------------------------------------*/
FoamFile
{
    version     2.0;
    format      ascii;
    class       volScalarField;
    location    "10000";
    object      p;
}
// * * * * * * * * * * * * * * * * * * * * * * * * * * * * * * * * * * * * * //

dimensions      [0 2 -2 0 0 0 0];

internalField   nonuniform List<scalar> 
5000
(
23137662
23046278
22988784
22932391
22880927
22831753
22784125
22737368
22691112
22645129
22599290
22553521
22507781
22462050
22416317
22370579
22324833
22279080
22233320
22187554
22141783
22096008
22050229
22004448
21958663
21912877
21867088
21821297
21775504
21729710
21683913
21638115
21592316
21546515
21500712
21454907
21409101
21363293
21317484
21271673
21225860
21180046
21134230
21088413
21042594
20996773
20950951
20905127
20859302
20813475
20767646
20721816
20675984
20630151
20584316
20538479
20492641
20446801
20400960
20355117
20309272
20263426
20217578
20171729
20125877
20080025
20034171
19988315
19942457
19896598
19850738
19804875
19759011
19713146
19667279
19621410
19575540
19529668
19483794
19437919
19392042
19346164
19300284
19254402
19208519
19162634
19116748
19070860
19024970
18979079
18933186
18887292
18841395
18795498
18749598
18703697
18657795
18611891
18565985
18520077
18474168
18428258
18382345
18336431
18290516
18244599
18198680
18152759
18106837
18060914
18014989
17969062
17923133
17877203
17831271
17785338
17739403
17693466
17647528
17601588
17555647
17509703
17463759
17417812
17371864
17325915
17279963
17234010
17188056
17142100
17096142
17050183
17004222
16958259
16912295
16866329
16820361
16774392
16728421
16682448
16636474
16590499
16544521
16498542
16452562
16406579
16360595
16314610
16268623
16222634
16176643
16130651
16084657
16038662
15992665
15946666
15900666
15854664
15808661
15762655
15716649
15670640
15624630
15578618
15532605
15486590
15440573
15394555
15348534
15302513
15256490
15210465
15164438
15118410
15072380
15026348
14980315
14934280
14888244
14842206
14796166
14750125
14704082
14658037
14611990
14565942
14519893
14473841
14427788
14381734
14335678
14289620
14243560
14197499
14151436
14105371
14059305
14013237
13967168
13921097
13875024
13828949
13782873
13736795
13690716
13644635
13598552
13552468
13506381
13460294
13414204
13368113
13322020
13275926
13229830
13183732
13137633
13091532
13045429
12999325
12953219
12907111
12861002
12814891
12768778
12722663
12676547
12630430
12584310
12538189
12492067
12445942
12399816
12353688
12307559
12261428
12215295
12169161
12123025
12076887
12030748
11984607
11938464
11892319
11846173
11800025
11753876
11707725
11661572
11615418
11569261
11523104
11476944
11430783
11384620
11338455
11292289
11246121
11199952
11153780
11107607
11061433
11015257
10969079
10922899
10876718
10830534
10784350
10738163
10691975
10645785
10599594
10553401
10507206
10461010
10414811
10368611
10322410
10276207
10230002
10183795
10137587
10091377
10045165
9998951.6
9952736.5
9906519.8
9860301.3
9814081.1
9767859.3
9721635.8
9675410.5
9629183.6
9582955
9536724.7
9490492.7
9444259
9398023.6
9351786.5
9305547.7
9259307.2
9213065
9166821.1
9120575.6
9074328.3
9028079.3
8981828.7
8935576.3
8889322.2
8843066.4
8796809
8750549.8
8704288.9
8658026.4
8611762.1
8565496.1
8519228.4
8472959.1
8426688
8380415.2
8334140.7
8287864.5
8241586.6
8195307
8149025.7
8102742.7
8056457.9
8010171.5
7963883.4
7917593.5
7871302
7825008.7
7778713.7
7732417
7686118.6
7639818.5
7593516.7
7547213.2
7500908
7454601
7408292.3
7361982
7315669.9
7269356.1
7223040.6
7176723.3
7130404.4
7084083.7
7037761.4
6991437.3
6945111.5
6898783.9
6852454.7
6806123.7
6759791.1
6713456.7
6667120.5
6620782.7
6574443.2
6528101.9
6481758.9
6435414.2
6389067.7
6342719.6
6296369.7
6250018.1
6203664.8
6157309.7
6110953
6064594.5
6018234.2
5971872.3
5925508.6
5879143.2
5832776.1
5786407.2
5740036.7
5693664.4
5647290.3
5600914.6
5554537.1
5508157.9
5461776.9
5415394.2
5369009.8
5322623.7
5276235.8
5229846.2
5183454.9
5137061.8
5090667
5044270.5
4997872.2
4951472.2
4905070.5
4858667
4812261.8
4765854.9
4719446.2
4673035.8
4626623.6
4580209.7
4533794.1
4487376.8
4440957.7
4394536.8
4348114.2
4301689.9
4255263.9
4208836.1
4162406.5
4115975.2
4069542.2
4023107.4
3976670.9
3930232.7
3883792.7
3837350.9
3790907.4
3744462.2
3698015.2
3651566.5
3605116
3558663.8
3512209.9
3465754.2
3419296.7
3372837.5
3326376.6
3279913.9
3233449.4
3186983.2
3140515.2
3094045.5
3047574.1
3001100.9
2954625.9
2908149.2
2861670.8
2815190.5
2768708.6
2722224.9
2675739.4
2629252.1
2582763.2
2536272.4
2489779.9
2443285.7
2396789.7
2350291.9
2303792.4
2257291.1
2210788
2164283.2
2117776.7
2071268.3
2024758.3
1978246.4
1931732.8
1885217.4
1838700.3
1792181.4
1745660.8
1699138.3
1652614.2
1606088.2
1559560.5
1513031
1466499.8
1419966.8
1373432
1326895.5
1280357.2
1233817.1
1187275.3
1140731.6
1094186.3
1047639.1
1001090.2
954539.51
907987.05
861432.82
814876.82
768319.05
721759.5
675198.18
628635.08
582070.21
535503.58
488935.17
442365
395793.09
349219.46
302644.15
256067.31
209488.81
162910.01
116326.52
69762.78
23093.8
23133504
23045459
22986747
22931283
22880169
22831292
22783847
22737206
22691020
22645079
22599263
22553508
22507775
22462048
22416318
22370580
22324834
22279081
22233321
22187555
22141784
22096009
22050230
22004448
21958664
21912877
21867088
21821298
21775505
21729710
21683914
21638116
21592316
21546515
21500712
21454907
21409101
21363293
21317484
21271673
21225860
21180046
21134230
21088413
21042594
20996773
20950951
20905127
20859302
20813475
20767646
20721816
20675984
20630151
20584316
20538479
20492641
20446801
20400960
20355117
20309272
20263426
20217578
20171729
20125878
20080025
20034171
19988315
19942458
19896599
19850738
19804876
19759012
19713146
19667279
19621411
19575540
19529668
19483795
19437920
19392043
19346164
19300284
19254403
19208520
19162635
19116748
19070860
19024971
18979079
18933187
18887292
18841396
18795498
18749599
18703698
18657795
18611891
18565985
18520078
18474169
18428258
18382346
18336432
18290516
18244599
18198680
18152760
18106838
18060914
18014989
17969062
17923134
17877203
17831272
17785338
17739403
17693467
17647528
17601589
17555647
17509704
17463759
17417813
17371865
17325915
17279964
17234011
17188056
17142100
17096142
17050183
17004222
16958259
16912295
16866329
16820361
16774392
16728421
16682449
16636475
16590499
16544522
16498543
16452562
16406580
16360596
16314610
16268623
16222634
16176644
16130652
16084658
16038663
15992666
15946667
15900667
15854665
15808661
15762656
15716649
15670640
15624630
15578619
15532605
15486590
15440573
15394555
15348535
15302513
15256490
15210465
15164438
15118410
15072380
15026349
14980316
14934281
14888244
14842206
14796166
14750125
14704082
14658037
14611991
14565943
14519893
14473842
14427789
14381734
14335678
14289620
14243560
14197499
14151436
14105372
14059306
14013238
13967168
13921097
13875024
13828950
13782874
13736796
13690716
13644635
13598552
13552468
13506382
13460294
13414205
13368114
13322021
13275927
13229830
13183733
13137633
13091532
13045430
12999325
12953219
12907111
12861002
12814891
12768778
12722664
12676548
12630430
12584311
12538190
12492067
12445943
12399817
12353689
12307560
12261428
12215296
12169161
12123025
12076887
12030748
11984607
11938464
11892320
11846174
11800026
11753876
11707725
11661572
11615418
11569262
11523104
11476944
11430783
11384620
11338456
11292290
11246122
11199952
11153781
11107608
11061433
11015257
10969079
10922899
10876718
10830535
10784350
10738164
10691976
10645786
10599594
10553401
10507207
10461010
10414812
10368612
10322410
10276207
10230002
10183796
10137587
10091377
10045165
9998952.1
9952737
9906520.2
9860301.7
9814081.6
9767859.7
9721636.2
9675411
9629184
9582955.4
9536725.1
9490493.1
9444259.4
9398024
9351786.9
9305548.1
9259307.6
9213065.5
9166821.6
9120576
9074328.7
9028079.8
8981829.1
8935576.7
8889322.7
8843066.9
8796809.4
8750550.3
8704289.4
8658026.8
8611762.5
8565496.6
8519228.9
8472959.5
8426688.4
8380415.6
8334141.2
8287865
8241587.1
8195307.4
8149026.1
8102743.1
8056458.4
8010172
7963883.8
7917594
7871302.4
7825009.1
7778714.2
7732417.5
7686119.1
7639819
7593517.2
7547213.6
7500908.4
7454601.5
7408292.8
7361982.4
7315670.3
7269356.5
7223041
7176723.8
7130404.8
7084084.2
7037761.8
6991437.7
6945111.9
6898784.4
6852455.1
6806124.2
6759791.5
6713457.1
6667121
6620783.2
6574443.6
6528102.3
6481759.3
6435414.6
6389068.2
6342720
6296370.2
6250018.6
6203665.2
6157310.2
6110953.4
6064594.9
6018234.7
5971872.7
5925509.1
5879143.7
5832776.5
5786407.7
5740037.1
5693664.8
5647290.8
5600915
5554537.5
5508158.3
5461777.4
5415394.7
5369010.3
5322624.1
5276236.3
5229846.7
5183455.3
5137062.3
5090667.5
5044270.9
4997872.7
4951472.7
4905070.9
4858667.5
4812262.3
4765855.3
4719446.6
4673036.2
4626624.1
4580210.2
4533794.6
4487377.2
4440958.1
4394537.3
4348114.7
4301690.4
4255264.3
4208836.5
4162407
4115975.7
4069542.7
4023107.9
3976671.4
3930233.1
3883793.1
3837351.4
3790907.9
3744462.7
3698015.7
3651567
3605116.5
3558664.3
3512210.3
3465754.6
3419297.2
3372838
3326377
3279914.3
3233449.9
3186983.7
3140515.7
3094046
3047574.5
3001101.3
2954626.4
2908149.7
2861671.2
2815191
2768709
2722225.3
2675739.8
2629252.6
2582763.6
2536272.9
2489780.4
2443286.1
2396790.1
2350292.3
2303792.8
2257291.5
2210788.5
2164283.7
2117777.1
2071268.8
2024758.7
1978246.9
1931733.3
1885217.9
1838700.8
1792181.9
1745661.2
1699138.8
1652614.6
1606088.7
1559561
1513031.5
1466500.2
1419967.2
1373432.5
1326895.9
1280357.6
1233817.6
1187275.7
1140732.1
1094186.7
1047639.6
1001090.7
954539.97
907987.51
861433.28
814877.28
768319.5
721759.95
675198.63
628635.54
582070.67
535504.03
488935.62
442365.45
395793.53
349219.88
302644.55
256067.65
209489.15
162909.97
116327.72
69754.61
23110.431
23127800
23041583
22983561
22929280
22878889
22830519
22783392
22736946
22690877
22645003
22599226
22553491
22507770
22462049
22416320
22370584
22324838
22279084
22233324
22187557
22141786
22096011
22050232
22004450
21958665
21912878
21867089
21821299
21775506
21729711
21683915
21638117
21592317
21546516
21500713
21454908
21409102
21363294
21317485
21271674
21225861
21180047
21134231
21088414
21042595
20996774
20950952
20905128
20859303
20813476
20767647
20721817
20675985
20630152
20584317
20538480
20492642
20446802
20400961
20355118
20309273
20263427
20217579
20171730
20125879
20080026
20034172
19988316
19942459
19896599
19850739
19804877
19759013
19713147
19667280
19621411
19575541
19529669
19483796
19437920
19392044
19346165
19300285
19254404
19208520
19162636
19116749
19070861
19024971
18979080
18933187
18887293
18841397
18795499
18749600
18703699
18657796
18611892
18565986
18520079
18474169
18428259
18382347
18336433
18290517
18244600
18198681
18152761
18106839
18060915
18014990
17969063
17923134
17877204
17831272
17785339
17739404
17693467
17647529
17601589
17555648
17509705
17463760
17417814
17371866
17325916
17279965
17234012
17188057
17142101
17096143
17050184
17004223
16958260
16912296
16866330
16820362
16774393
16728422
16682450
16636476
16590500
16544522
16498543
16452563
16406581
16360597
16314611
16268624
16222635
16176645
16130652
16084659
16038663
15992666
15946668
15900667
15854665
15808662
15762657
15716650
15670641
15624631
15578619
15532606
15486591
15440574
15394556
15348536
15302514
15256491
15210466
15164439
15118411
15072381
15026350
14980316
14934282
14888245
14842207
14796167
14750126
14704083
14658038
14611992
14565944
14519894
14473843
14427790
14381735
14335679
14289621
14243561
14197500
14151437
14105373
14059306
14013239
13967169
13921098
13875025
13828951
13782874
13736797
13690717
13644636
13598553
13552469
13506383
13460295
13414206
13368114
13322022
13275927
13229831
13183734
13137634
13091533
13045430
12999326
12953220
12907112
12861003
12814892
12768779
12722665
12676549
12630431
12584312
12538191
12492068
12445943
12399817
12353690
12307560
12261429
12215297
12169162
12123026
12076888
12030749
11984608
11938465
11892321
11846174
11800027
11753877
11707726
11661573
11615419
11569263
11523105
11476945
11430784
11384621
11338457
11292290
11246123
11199953
11153782
11107609
11061434
11015258
10969080
10922900
10876719
10830536
10784351
10738165
10691977
10645787
10599595
10553402
10507207
10461011
10414813
10368613
10322411
10276208
10230003
10183796
10137588
10091378
10045166
9998952.9
9952737.8
9906521
9860302.5
9814082.4
9767860.5
9721637
9675411.8
9629184.8
9582956.2
9536725.9
9490493.9
9444260.2
9398024.8
9351787.7
9305548.9
9259308.4
9213066.3
9166822.4
9120576.8
9074329.5
9028080.6
8981829.9
8935577.5
8889323.5
8843067.7
8796810.2
8750551
8704290.2
8658027.6
8611763.3
8565497.4
8519229.7
8472960.3
8426689.2
8380416.4
8334141.9
8287865.7
8241587.8
8195308.2
8149026.9
8102743.9
8056459.2
8010172.7
7963884.6
7917594.8
7871303.2
7825009.9
7778715
7732418.3
7686119.9
7639819.8
7593518
7547214.4
7500909.2
7454602.2
7408293.6
7361983.2
7315671.1
7269357.3
7223041.8
7176724.6
7130405.6
7084085
7037762.6
6991438.5
6945112.7
6898785.2
6852455.9
6806125
6759792.3
6713457.9
6667121.8
6620784
6574444.4
6528103.1
6481760.1
6435415.4
6389069
6342720.8
6296370.9
6250019.3
6203666
6157311
6110954.2
6064595.7
6018235.5
5971873.5
5925509.9
5879144.5
5832777.3
5786408.5
5740037.9
5693665.6
5647291.6
5600915.8
5554538.3
5508159.1
5461778.2
5415395.5
5369011.1
5322624.9
5276237.1
5229847.5
5183456.1
5137063.1
5090668.3
5044271.7
4997873.5
4951473.5
4905071.7
4858668.3
4812263.1
4765856.1
4719447.4
4673037
4626624.9
4580211
4533795.4
4487378
4440958.9
4394538.1
4348115.5
4301691.2
4255265.1
4208837.3
4162407.8
4115976.5
4069543.4
4023108.7
3976672.2
3930233.9
3883793.9
3837352.2
3790908.7
3744463.5
3698016.5
3651567.8
3605117.3
3558665.1
3512211.1
3465755.4
3419298
3372838.7
3326377.8
3279915.1
3233450.6
3186984.4
3140516.5
3094046.8
3047575.3
3001102.1
2954627.2
2908150.5
2861672
2815191.8
2768709.8
2722226.1
2675740.6
2629253.4
2582764.4
2536273.7
2489781.2
2443286.9
2396790.9
2350293.1
2303793.6
2257292.3
2210789.3
2164284.5
2117777.9
2071269.6
2024759.5
1978247.7
1931734
1885218.7
1838701.6
1792182.7
1745662
1699139.6
1652615.4
1606089.5
1559561.8
1513032.3
1466501
1419968
1373433.3
1326896.7
1280358.4
1233818.3
1187276.5
1140732.9
1094187.5
1047640.4
1001091.4
954540.76
907988.3
861434.07
814878.07
768320.29
721760.75
675199.42
628636.33
582071.46
535504.82
488936.4
442366.23
395794.29
349220.63
302645.26
256068.28
209489.69
162910.2
116328.37
69751.068
23116.784
23119121
23035153
22978896
22926306
22877033
22829410
22782747
22736583
22690678
22644900
22599177
22553471
22507765
22462050
22416325
22370589
22324844
22279089
22233328
22187561
22141789
22096013
22050234
22004452
21958667
21912880
21867091
21821300
21775507
21729712
21683916
21638118
21592318
21546517
21500714
21454909
21409103
21363295
21317486
21271675
21225862
21180048
21134232
21088415
21042596
20996775
20950953
20905129
20859304
20813477
20767648
20721818
20675986
20630153
20584318
20538481
20492643
20446803
20400962
20355119
20309274
20263428
20217580
20171731
20125880
20080027
20034173
19988317
19942460
19896601
19850740
19804878
19759014
19713148
19667281
19621413
19575542
19529670
19483797
19437922
19392045
19346166
19300286
19254405
19208522
19162637
19116750
19070862
19024973
18979081
18933188
18887294
18841398
18795500
18749601
18703700
18657797
18611893
18565987
18520080
18474171
18428260
18382348
18336434
18290518
18244601
18198682
18152762
18106840
18060916
18014991
17969064
17923136
17877205
17831274
17785340
17739405
17693469
17647530
17601591
17555649
17509706
17463761
17417815
17371867
17325917
17279966
17234013
17188058
17142102
17096144
17050185
17004224
16958261
16912297
16866331
16820363
16774394
16728423
16682451
16636477
16590501
16544524
16498545
16452564
16406582
16360598
16314612
16268625
16222636
16176646
16130654
16084660
16038665
15992668
15946669
15900669
15854667
15808663
15762658
15716651
15670642
15624632
15578621
15532607
15486592
15440575
15394557
15348537
15302515
15256492
15210467
15164440
15118412
15072382
15026351
14980318
14934283
14888246
14842208
14796168
14750127
14704084
14658039
14611993
14565945
14519895
14473844
14427791
14381736
14335680
14289622
14243562
14197501
14151438
14105374
14059308
14013240
13967170
13921099
13875026
13828952
13782876
13736798
13690718
13644637
13598554
13552470
13506384
13460296
13414207
13368116
13322023
13275928
13229832
13183735
13137635
13091534
13045432
12999327
12953221
12907113
12861004
12814893
12768780
12722666
12676550
12630432
12584313
12538192
12492069
12445945
12399819
12353691
12307561
12261430
12215298
12169163
12123027
12076889
12030750
11984609
11938466
11892322
11846176
11800028
11753878
11707727
11661574
11615420
11569264
11523106
11476946
11430785
11384622
11338458
11292292
11246124
11199954
11153783
11107610
11061435
11015259
10969081
10922901
10876720
10830537
10784352
10738166
10691978
10645788
10599596
10553403
10507208
10461012
10414814
10368614
10322412
10276209
10230004
10183797
10137589
10091379
10045167
9998954
9952739
9906522.2
9860303.7
9814083.6
9767861.7
9721638.2
9675413
9629186
9582957.4
9536727.1
9490495.1
9444261.4
9398026
9351788.9
9305550.1
9259309.6
9213067.4
9166823.6
9120578
9074330.7
9028081.8
8981831.1
8935578.7
8889324.6
8843068.9
8796811.4
8750552.2
8704291.4
8658028.8
8611764.5
8565498.6
8519230.9
8472961.5
8426690.4
8380417.6
8334143.1
8287866.9
8241589
8195309.4
8149028.1
8102745.1
8056460.4
8010173.9
7963885.8
7917595.9
7871304.4
7825011.1
7778716.1
7732419.5
7686121.1
7639821
7593519.2
7547215.6
7500910.4
7454603.4
7408294.8
7361984.4
7315672.3
7269358.5
7223043
7176725.8
7130406.8
7084086.2
7037763.8
6991439.7
6945113.9
6898786.4
6852457.1
6806126.2
6759793.5
6713459.1
6667123
6620785.1
6574445.6
6528104.3
6481761.3
6435416.6
6389070.2
6342722
6296372.1
6250020.5
6203667.2
6157312.2
6110955.4
6064596.9
6018236.7
5971874.7
5925511.1
5879145.7
5832778.5
5786409.7
5740039.1
5693666.8
5647292.8
5600917
5554539.5
5508160.3
5461779.4
5415396.7
5369012.3
5322626.1
5276238.3
5229848.7
5183457.3
5137064.3
5090669.5
5044272.9
4997874.7
4951474.7
4905072.9
4858669.5
4812264.2
4765857.3
4719448.6
4673038.2
4626626.1
4580212.2
4533796.6
4487379.2
4440960.1
4394539.3
4348116.7
4301692.4
4255266.3
4208838.5
4162408.9
4115977.7
4069544.6
4023109.9
3976673.4
3930235.1
3883795.1
3837353.4
3790909.9
3744464.7
3698017.7
3651569
3605118.5
3558666.3
3512212.3
3465756.6
3419299.1
3372839.9
3326379
3279916.3
3233451.8
3186985.6
3140517.7
3094048
3047576.5
3001103.3
2954628.4
2908151.7
2861673.2
2815193
2768711
2722227.3
2675741.8
2629254.6
2582765.6
2536274.9
2489782.4
2443288.1
2396792.1
2350294.3
2303794.8
2257293.5
2210790.5
2164285.7
2117779.1
2071270.8
2024760.7
1978248.9
1931735.2
1885219.9
1838702.8
1792183.9
1745663.2
1699140.8
1652616.6
1606090.7
1559563
1513033.5
1466502.2
1419969.2
1373434.5
1326897.9
1280359.6
1233819.5
1187277.7
1140734.1
1094188.7
1047641.6
1001092.6
954541.96
907989.5
861435.27
814879.27
768321.49
721761.94
675200.62
628637.53
582072.66
535506.01
488937.59
442367.4
395795.45
349221.76
302646.33
256069.26
209490.51
162910.67
116328.96
69748.551
23122.217
23106711
23026347
22972764
22922464
22874690
22828031
22781957
22736143
22690443
22644780
22599121
22553449
22507761
22462055
22416333
22370598
22324851
22279096
22233334
22187566
22141793
22096017
22050237
22004454
21958669
21912882
21867093
21821302
21775509
21729714
21683918
21638120
21592320
21546519
21500716
21454911
21409105
21363297
21317488
21271677
21225864
21180050
21134234
21088417
21042598
20996777
20950955
20905131
20859306
20813479
20767650
20721820
20675988
20630155
20584320
20538483
20492645
20446805
20400964
20355121
20309276
20263430
20217582
20171733
20125881
20080029
20034175
19988319
19942461
19896602
19850742
19804879
19759015
19713150
19667283
19621414
19575544
19529672
19483798
19437923
19392046
19346168
19300288
19254406
19208523
19162638
19116752
19070864
19024974
18979083
18933190
18887296
18841399
18795502
18749602
18703701
18657799
18611895
18565989
18520081
18474172
18428262
18382349
18336435
18290520
18244603
18198684
18152763
18106841
18060918
18014993
17969066
17923137
17877207
17831275
17785342
17739407
17693470
17647532
17601592
17555651
17509707
17463763
17417816
17371868
17325919
17279967
17234014
17188060
17142104
17096146
17050187
17004226
16958263
16912299
16866333
16820365
16774396
16728425
16682452
16636478
16590503
16544525
16498546
16452566
16406583
16360599
16314614
16268627
16222638
16176647
16130655
16084661
16038666
15992669
15946670
15900670
15854668
15808665
15762659
15716653
15670644
15624634
15578622
15532609
15486594
15440577
15394559
15348539
15302517
15256494
15210469
15164442
15118414
15072384
15026352
14980319
14934284
14888248
14842210
14796170
14750129
14704086
14658041
14611994
14565946
14519897
14473845
14427792
14381738
14335682
14289624
14243564
14197503
14151440
14105375
14059309
14013241
13967172
13921101
13875028
13828953
13782877
13736799
13690720
13644639
13598556
13552472
13506385
13460298
13414208
13368117
13322024
13275930
13229834
13183736
13137637
13091536
13045433
12999329
12953223
12907115
12861006
12814895
12768782
12722667
12676551
12630434
12584314
12538193
12492071
12445946
12399820
12353692
12307563
12261432
12215299
12169165
12123029
12076891
12030752
11984611
11938468
11892323
11846177
11800029
11753880
11707729
11661576
11615422
11569265
11523108
11476948
11430787
11384624
11338459
11292293
11246125
11199956
11153784
11107611
11061437
11015261
10969083
10922903
10876722
10830539
10784354
10738167
10691979
10645790
10599598
10553405
10507210
10461014
10414815
10368615
10322414
10276211
10230006
10183799
10137591
10091381
10045169
9998955.6
9952740.6
9906523.8
9860305.3
9814085.2
9767863.3
9721639.8
9675414.6
9629187.6
9582959
9536728.7
9490496.7
9444263
9398027.6
9351790.5
9305551.7
9259311.2
9213069
9166825.2
9120579.6
9074332.3
9028083.4
8981832.7
8935580.3
8889326.2
8843070.5
8796813
8750553.8
8704293
8658030.4
8611766.1
8565500.2
8519232.5
8472963.1
8426692
8380419.2
8334144.7
8287868.5
8241590.6
8195311
8149029.7
8102746.7
8056462
8010175.5
7963887.4
7917597.5
7871306
7825012.7
7778717.8
7732421.1
7686122.7
7639822.6
7593520.8
7547217.2
7500912
7454605
7408296.4
7361986
7315673.9
7269360.1
7223044.6
7176727.4
7130408.4
7084087.8
7037765.4
6991441.3
6945115.5
6898788
6852458.7
6806127.8
6759795.1
6713460.7
6667124.6
6620786.7
6574447.2
6528105.9
6481762.9
6435418.2
6389071.8
6342723.6
6296373.7
6250022.1
6203668.8
6157313.8
6110957
6064598.5
6018238.3
5971876.3
5925512.7
5879147.3
5832780.1
5786411.3
5740040.7
5693668.4
5647294.4
5600918.6
5554541.1
5508161.9
5461781
5415398.3
5369013.9
5322627.7
5276239.9
5229850.3
5183458.9
5137065.9
5090671.1
5044274.5
4997876.3
4951476.3
4905074.5
4858671.1
4812265.9
4765858.9
4719450.2
4673039.8
4626627.7
4580213.8
4533798.2
4487380.8
4440961.7
4394540.9
4348118.3
4301694
4255267.9
4208840.1
4162410.6
4115979.3
4069546.2
4023111.5
3976675
3930236.7
3883796.7
3837355
3790911.5
3744466.3
3698019.3
3651570.6
3605120.1
3558667.9
3512213.9
3465758.2
3419300.8
3372841.6
3326380.6
3279917.9
3233453.4
3186987.2
3140519.3
3094049.6
3047578.1
3001104.9
2954630
2908153.3
2861674.8
2815194.6
2768712.6
2722228.9
2675743.4
2629256.2
2582767.2
2536276.5
2489784
2443289.7
2396793.7
2350295.9
2303796.4
2257295.1
2210792.1
2164287.3
2117780.7
2071272.4
2024762.3
1978250.5
1931736.9
1885221.5
1838704.4
1792185.5
1745664.8
1699142.4
1652618.2
1606092.3
1559564.6
1513035.1
1466503.8
1419970.8
1373436.1
1326899.5
1280361.2
1233821.2
1187279.3
1140735.7
1094190.3
1047643.2
1001094.3
954543.57
907991.11
861436.88
814880.88
768323.1
721763.55
675202.23
628639.13
582074.26
535507.61
488939.19
442368.99
395797.02
349223.28
302647.79
256070.59
209491.66
162911.41
116329.64
69745.867
23129.613
23089917
23015099
22965294
22917928
22872003
22826485
22781087
22735668
22690193
22644657
22599067
22553432
22507761
22462063
22416344
22370609
22324861
22279105
22233341
22187572
22141798
22096021
22050241
22004458
21958672
21912885
21867095
21821304
21775511
21729716
21683920
21638122
21592322
21546521
21500718
21454913
21409107
21363299
21317490
21271679
21225866
21180052
21134236
21088419
21042600
20996779
20950957
20905133
20859308
20813481
20767652
20721822
20675990
20630157
20584322
20538485
20492647
20446807
20400966
20355123
20309278
20263432
20217584
20171734
20125883
20080031
20034177
19988321
19942463
19896604
19850744
19804881
19759017
19713152
19667285
19621416
19575546
19529674
19483800
19437925
19392048
19346170
19300290
19254408
19208525
19162640
19116754
19070866
19024976
18979085
18933192
18887298
18841401
18795504
18749604
18703703
18657801
18611897
18565991
18520083
18474174
18428264
18382351
18336437
18290522
18244605
18198686
18152765
18106843
18060920
18014995
17969068
17923139
17877209
17831277
17785344
17739409
17693472
17647534
17601594
17555653
17509709
17463765
17417818
17371870
17325921
17279969
17234016
17188062
17142106
17096148
17050189
17004228
16958265
16912301
16866335
16820367
16774398
16728427
16682454
16636480
16590505
16544527
16498548
16452568
16406585
16360601
16314616
16268629
16222640
16176649
16130657
16084663
16038668
15992671
15946672
15900672
15854670
15808667
15762661
15716655
15670646
15624636
15578624
15532611
15486596
15440579
15394560
15348540
15302519
15256496
15210471
15164444
15118416
15072386
15026354
14980321
14934286
14888250
14842212
14796172
14750131
14704088
14658043
14611996
14565948
14519899
14473847
14427794
14381740
14335684
14289626
14243566
14197505
14151442
14105377
14059311
14013243
13967174
13921103
13875030
13828955
13782879
13736801
13690722
13644641
13598558
13552474
13506387
13460300
13414210
13368119
13322026
13275932
13229836
13183738
13137639
13091538
13045435
12999331
12953225
12907117
12861008
12814897
12768784
12722669
12676553
12630436
12584316
12538195
12492073
12445948
12399822
12353694
12307565
12261434
12215301
12169167
12123031
12076893
12030754
11984613
11938470
11892325
11846179
11800031
11753882
11707731
11661578
11615424
11569267
11523110
11476950
11430789
11384626
11338461
11292295
11246127
11199958
11153786
11107613
11061439
11015263
10969085
10922905
10876724
10830540
10784356
10738169
10691981
10645792
10599600
10553407
10507212
10461016
10414817
10368617
10322416
10276213
10230008
10183801
10137593
10091383
10045171
9998957.6
9952742.6
9906525.8
9860307.3
9814087.2
9767865.3
9721641.8
9675416.5
9629189.6
9582961
9536730.7
9490498.7
9444265
9398029.6
9351792.5
9305553.7
9259313.2
9213071
9166827.2
9120581.6
9074334.3
9028085.3
8981834.7
8935582.3
8889328.2
8843072.5
8796815
8750555.8
8704295
8658032.4
8611768.1
8565502.1
8519234.5
8472965.1
8426694
8380421.2
8334146.7
8287870.5
8241592.6
8195313
8149031.7
8102748.7
8056464
8010177.5
7963889.4
7917599.5
7871308
7825014.7
7778719.7
7732423.1
7686124.7
7639824.6
7593522.7
7547219.2
7500914
7454607
7408298.4
7361988
7315675.9
7269362.1
7223046.6
7176729.4
7130410.4
7084089.8
7037767.4
6991443.3
6945117.5
6898790
6852460.7
6806129.8
6759797.1
6713462.7
6667126.6
6620788.7
6574449.2
6528107.9
6481764.9
6435420.2
6389073.8
6342725.6
6296375.7
6250024.1
6203670.8
6157315.8
6110959
6064600.5
6018240.3
5971878.3
5925514.7
5879149.3
5832782.1
5786413.3
5740042.7
5693670.4
5647296.4
5600920.6
5554543.1
5508163.9
5461783
5415400.3
5369015.9
5322629.7
5276241.9
5229852.3
5183460.9
5137067.9
5090673.1
5044276.5
4997878.3
4951478.3
4905076.5
4858673.1
4812267.8
4765860.9
4719452.2
4673041.8
4626629.7
4580215.8
4533800.2
4487382.8
4440963.7
4394542.9
4348120.3
4301696
4255269.9
4208842.1
4162412.6
4115981.3
4069548.2
4023113.5
3976677
3930238.7
3883798.7
3837357
3790913.5
3744468.3
3698021.3
3651572.6
3605122.1
3558669.9
3512215.9
3465760.2
3419302.8
3372843.5
3326382.6
3279919.9
3233455.4
3186989.2
3140521.3
3094051.6
3047580.1
3001106.9
2954632
2908155.3
2861676.8
2815196.6
2768714.6
2722230.9
2675745.4
2629258.2
2582769.2
2536278.5
2489786
2443291.7
2396795.7
2350297.9
2303798.4
2257297.1
2210794.1
2164289.3
2117782.7
2071274.4
2024764.3
1978252.5
1931738.9
1885223.5
1838706.4
1792187.5
1745666.8
1699144.4
1652620.2
1606094.3
1559566.6
1513037.1
1466505.8
1419972.8
1373438.1
1326901.5
1280363.2
1233823.2
1187281.3
1140737.7
1094192.3
1047645.2
1001096.3
954545.57
907993.11
861438.88
814882.88
768325.1
721765.56
675204.23
628641.14
582076.26
535509.61
488941.18
442370.97
395798.97
349225.19
302649.62
256072.29
209493.14
162912.45
116330.43
69742.995
23138.816
23067617
23001329
22956724
22912949
22869157
22824892
22780212
22735202
22689956
22644546
22599023
22553422
22507767
22462075
22416358
22370622
22324873
22279115
22233350
22187579
22141804
22096026
22050245
22004461
21958676
21912888
21867098
21821307
21775514
21729719
21683922
21638124
21592324
21546523
21500720
21454915
21409109
21363301
21317492
21271681
21225868
21180054
21134238
21088421
21042602
20996781
20950959
20905135
20859310
20813483
20767654
20721824
20675992
20630159
20584324
20538487
20492649
20446809
20400968
20355125
20309280
20263434
20217586
20171737
20125886
20080033
20034179
19988323
19942466
19896607
19850746
19804884
19759020
19713154
19667287
19621418
19575548
19529676
19483803
19437927
19392051
19346172
19300292
19254411
19208528
19162643
19116756
19070868
19024979
18979087
18933194
18887300
18841404
18795506
18749607
18703706
18657803
18611899
18565993
18520086
18474177
18428266
18382354
18336440
18290524
18244607
18198688
18152768
18106846
18060922
18014997
17969070
17923141
17877211
17831280
17785346
17739411
17693475
17647536
17601596
17555655
17509712
17463767
17417821
17371873
17325923
17279972
17234019
17188064
17142108
17096150
17050191
17004230
16958267
16912303
16866337
16820369
16774400
16728429
16682457