/*--------------------------------*- C++ -*----------------------------------*\
  =========                 |
  \\      /  F ield         | OpenFOAM: The Open Source CFD Toolbox
   \\    /   O peration     | Website:  https://openfoam.org
    \\  /    A nd           | Version:  6
     \\/     M anipulation  |
\*---------------------------------------------------------------------------*/
FoamFile
{
    version     2.0;
    format      ascii;
    class       volVectorField;
    location    "10000";
    object      grad(p);
}
// * * * * * * * * * * * * * * * * * * * * * * * * * * * * * * * * * * * * * //

dimensions      [0 1 -2 0 0 0 0];

internalField   nonuniform List<vector> 
2500
(
(-193928.44 0 -24083.704)
(-351700.06 0 -13534.53)
(-296836.79 1.2703108e-12 -11702.926)
(-271531.09 1.2675242e-12 -8658.0303)
(-260503.22 0 -5722.5752)
(-252950.48 0 -3732.0526)
(-247820.31 0 -2434.0822)
(-244575.2 0 -1573.6803)
(-242537.63 0 -1008.3571)
(-241255.08 0 -648.11571)
(-240447.55 -1.2500311e-12 -415.43621)
(-239940.03 1.2476124e-12 -265.3051)
(-239625.02 -1.2451967e-12 -172.71589)
(-239425.01 0 -107.64532)
(-239300.01 0 -70.101647)
(-239225.01 -1.2379572e-12 -45.069858)
(-239175 0 -27.54545)
(-239147.5 -1.2331319e-12 -17.530679)
(-239132.5 1.2307188e-12 -10.018534)
(-239125 -1.2283054e-12 -7.5146536)
(-239122.5 -1.2258915e-12 -2.5051355)
(-239122.5 0 -2.5053866)
(-239127.5 -1.2210622e-12 0)
(-239132.5 -1.2186468e-12 2.5058888)
(-239137.5 -1.2162308e-12 2.50614)
(-239142.5 0 5.0127826)
(-239147.5 -1.2113972e-12 5.0132852)
(-239155 -1.2089796e-12 2.506894)
(-239162.5 0 2.5071454)
(-239170 -1.2041426e-12 2.5073968)
(-239177.5 -1.2017233e-12 2.5076483)
(-239185 -1.1993034e-12 2.5078999)
(-239192.5 0 5.016303)
(-239200 -1.194462e-12 2.5084032)
(-239207.5 -1.1920404e-12 5.0173097)
(-239215 -1.1896183e-12 5.0178132)
(-239222.5 0 5.0183169)
(-239230 -1.1847723e-12 5.0188206)
(-239237.5 -1.1823484e-12 5.0193244)
(-239245 0 5.0198283)
(-239252.5 -1.1774991e-12 5.0203324)
(-239260 -1.1750735e-12 5.0208365)
(-239267.5 -1.1726474e-12 5.0213407)
(-239275 0 2.5109225)
(-239285 -1.1677935e-12 2.5111747)
(-239290 -1.1653657e-12 5.022854)
(-239297.5 0 2.5116793)
(-239307.5 -1.1605083e-12 5.0238633)
(-239312.5 -1.1580788e-12 5.0243682)
(-239320 -1.1556487e-12 2.5124366)
(-239330 0 2.5126891)
(-239337.5 -1.1507868e-12 5.0258833)
(-239342.5 -1.148355e-12 5.0263885)
(-239352.5 -1.1459227e-12 2.5134469)
(-239360 0 5.0273993)
(-239365 -1.1410562e-12 2.5139524)
(-239375 -1.1386221e-12 2.5142053)
(-239382.5 0 5.0289163)
(-239390 -1.1337522e-12 2.5147111)
(-239397.5 -1.1313164e-12 5.0299281)
(-239405 -1.1288801e-12 2.5152171)
(-239412.5 0 5.0309403)
(-239420 -1.1240056e-12 2.5157233)
(-239430 -1.1215675e-12 2.5159765)
(-239435 0 5.0324594)
(-239442.5 -1.1166896e-12 2.516483)
(-239452.5 -1.1142498e-12 5.0334726)
(-239457.5 -1.1118095e-12 5.0339794)
(-239465 0 2.5172431)
(-239475 -1.106927e-12 2.5174966)
(-239482.5 -1.1044849e-12 5.0355003)
(-239487.5 0 5.0360075)
(-239497.5 -1.099599e-12 2.5182574)
(-239505 -1.0971552e-12 5.0370221)
(-239510 -1.0947108e-12 2.5187648)
(-239520 0 2.5190186)
(-239527.5 -1.0898203e-12 2.5192724)
(-239535 -1.0873742e-12 2.5195263)
(-239545 -1.0849275e-12 2.5197803)
(-239550 0 5.0400685)
(-239557.5 -1.0800324e-12 2.5202883)
(-239567.5 -1.077584e-12 5.0410848)
(-239572.5 0 5.0415931)
(-239580 -1.0726855e-12 5.0421016)
(-239590 -1.0702353e-12 5.04261)
(-239597.5 -1.0677846e-12 5.0431187)
(-239602.5 0 5.0436274)
(-239610 -1.0628814e-12 2.5220681)
(-239620 -1.060429e-12 2.5223226)
(-239627.5 0 5.0451541)
(-239635 -1.0555224e-12 5.0456632)
(-239642.5 -1.0530682e-12 5.0461725)
(-239650 -1.0506135e-12 5.0466818)
(-239657.5 0 5.0471912)
(-239665 -1.0457022e-12 2.5238504)
(-239672.5 -1.0432457e-12 5.0482104)
(-239680 -1.0407887e-12 2.5243601)
(-239690 0 2.524615)
(-239697.5 -1.0358728e-12 5.0497399)
(-239702.5 -1.033414e-12 5.05025)
(-239710 0 2.5253801)
(-239720 -1.0284947e-12 2.5256352)
(-239727.5 -1.0260341e-12 5.0517808)
(-239735 -1.023573e-12 2.5261456)
(-239742.5 0 5.0528018)
(-239750 -1.018649e-12 5.0533125)
(-239757.5 -1.0161862e-12 5.0538232)
(-239765 0 2.527167)
(-239772.5 -1.0112587e-12 5.0548451)
(-239780 -1.0087941e-12 2.5276781)
(-239790 -1.0063289e-12 2.5279337)
(-239797.5 0 5.0563786)
(-239802.5 -1.0013968e-12 5.05689)
(-239810 -9.9892991e-13 2.5287008)
(-239820 0 2.5289565)
(-239827.5 -9.9399433e-13 5.0584248)
(-239835 -9.9152565e-13 2.5294683)
(-239842.5 -9.8905641e-13 5.0594485)
(-239850 0 2.5299803)
(-239857.5 -9.8411616e-13 5.0604727)
(-239865 -9.8164515e-13 2.5304924)
(-239875 -9.7917357e-13 2.5307486)
(-239882.5 0 5.0620096)
(-239887.5 -9.7422865e-13 5.0625222)
(-239895 -9.7175532e-13 2.5315174)
(-239905 0 2.5317738)
(-239912.5 -9.6680691e-13 5.0640604)
(-239920 -9.6433184e-13 5.0645733)
(-239927.5 -9.6185615e-13 5.0650864)
(-239935 0 5.0655995)
(-239942.5 -9.5690306e-13 5.0661128)
(-239950 -9.5442566e-13 5.0666261)
(-239957.5 0 5.0671396)
(-239965 -9.4946905e-13 2.5338266)
(-239975 -9.4698987e-13 2.5340834)
(-239982.5 -9.4451011e-13 5.0686806)
(-239987.5 0 5.0691945)
(-239997.5 -9.3954883e-13 2.5348542)
(-240005 -9.3706729e-13 5.0702226)
(-240012.5 0 2.5353684)
(-240020 -9.3210249e-13 5.0712511)
(-240027.5 -9.2961922e-13 2.5358827)
(-240037.5 -9.2713535e-13 5.07228)
(-240042.5 0 5.0727946)
(-240050 -9.2216587e-13 5.0733093)
(-240060 -9.1968024e-13 5.0738241)
(-240067.5 -9.1719399e-13 5.0743391)
(-240072.5 0 5.0748541)
(-240082.5 -9.1221981e-13 2.5376846)
(-240090 -9.0973181e-13 5.0758845)
(-240097.5 0 2.5381999)
(-240105 -9.0475408e-13 5.0769153)
(-240112.5 -9.0226435e-13 2.5387154)
(-240122.5 -8.9977401e-13 5.0779465)
(-240127.5 0 5.0784622)
(-240135 -8.9479156e-13 2.5394891)
(-240145 -8.9229946e-13 2.539747)
(-240152.5 0 5.0800101)
(-240160 -8.8731346e-13 2.5402632)
(-240167.5 -8.848196e-13 5.0810426)
(-240175 -8.8232512e-13 2.5407795)
(-240182.5 -8.7983008e-13 5.0820755)
(-240190 -8.7733442e-13 2.5412961)
(-240200 -8.7483818e-13 2.5415544)
(-240207.5 -8.7234135e-13 5.0836256)
(-240212.5 0 5.0841426)
(-240222.5 -8.6734592e-13 2.5423298)
(-240230 -8.6484729e-13 5.0851767)
(-240237.5 -8.623481e-13 2.542847)
(-240245 -8.598483e-13 5.0862113)
(-240252.5 -8.5734793e-13 2.5433644)
(-240262.5 -8.5484695e-13 5.0872463)
(-240267.5 0 5.0877639)
(-240275 -8.4984322e-13 2.5441408)
(-240285 -8.4734047e-13 2.5443998)
(-240292.5 0 5.0893175)
(-240300 -8.4233319e-13 5.0898356)
(-240307.5 -8.3982864e-13 5.0903538)
(-240315 -8.3732353e-13 5.0908721)
(-240322.5 0 5.0913905)
(-240330 -8.3231147e-13 2.5459545)
(-240340 -8.2980455e-13 2.5462138)
(-240347.5 0 5.0929463)
(-240355 -8.2478895e-13 5.0934651)
(-240362.5 -8.2228023e-13 5.093984)
(-240370 -8.1977095e-13 5.094503)
(-240377.5 -8.1726105e-13 5.0950222)
(-240385 -8.1475058e-13 5.0955414)
(-240392.5 -8.1223949e-13 5.0960607)
(-240400 -8.0972781e-13 2.5482901)
(-240410 0 2.5485499)
(-240417.5 -8.0470267e-13 5.0976194)
(-240425 -8.0218921e-13 5.0981392)
(-240432.5 -7.9967513e-13 5.0986591)
(-240440 -7.9716049e-13 5.099179)
(-240447.5 -7.9464522e-13 5.0996991)
(-240455 -7.9212938e-13 5.1002193)
(-240465 0 5.1007396)
(-240472.5 -7.8709585e-13 5.10126)
(-240477.5 -7.845782e-13 5.1017805)
(-240487.5 0 2.5511506)
(-240495 -7.795411e-13 5.1028219)
(-240502.5 -7.7702167e-13 2.5516713)
(-240512.5 -7.7450162e-13 5.1038636)
(-240517.5 0 5.1043847)
(-240525 -7.6945975e-13 5.1049058)
(-240535 -7.6693791e-13 5.1054271)
(-240542.5 0 5.1059484)
(-240550 -7.6189241e-13 5.1064699)
(-240557.5 -7.5936876e-13 5.1069915)
(-240565 -7.5684453e-13 5.1075132)
(-240572.5 -7.5431968e-13 5.1080349)
(-240580 -7.5179423e-13 2.5542784)
(-240590 -7.4926819e-13 2.5545394)
(-240597.5 0 5.1096009)
(-240605 0 5.1101232)
(-240612.5 -7.4168644e-13 5.1106455)
(-240620 -7.3915801e-13 5.1111679)
(-240627.5 -7.3662895e-13 5.1116904)
(-240635 0 2.5561065)
(-240645 -7.3156903e-13 2.5563679)
(-240652.5 -7.2903818e-13 5.1132587)
(-240660 0 5.1137816)
(-240667.5 -7.2397464e-13 5.1143047)
(-240675 0 5.1148279)
(-240682.5 0 5.1153512)
(-240690 -7.1637483e-13 2.5579373)
(-240700 -7.1384035e-13 2.558199)
(-240707.5 -7.1130527e-13 5.1169217)
(-240715 -7.0876959e-13 5.1174454)
(-240722.5 -7.0623328e-13 5.1179692)
(-240730 -7.036964e-13 5.1184931)
(-240737.5 -7.0115889e-13 5.1190171)
(-240745 -6.9862078e-13 2.5597706)
(-240755 0 2.5600328)
(-240762.5 -6.9354276e-13 5.1205899)
(-240770 -6.9100282e-13 2.5605572)
(-240777.5 -6.8846231e-13 5.1216389)
(-240785 -6.8592116e-13 2.5610818)
(-240795 0 5.1226884)
(-240802.5 0 5.1232133)
(-240807.5 -6.7829412e-13 5.1237383)
(-240815 -6.7575056e-13 2.5621317)
(-240825 -6.7320641e-13 2.5623943)
(-240835 0 2.562657)
(-240840 -6.6811623e-13 5.1258394)
(-240847.5 -6.6557027e-13 2.5631824)
(-240857.5 0 5.1268905)
(-240865 -6.6047647e-13 5.1274163)
(-240872.5 0 5.1279422)
(-240880 0 5.1284681)
(-240887.5 -6.5283119e-13 5.1289942)
(-240895 -6.5028155e-13 2.5647602)
(-240905 -6.477313e-13 2.5650233)
(-240912.5 -6.4518045e-13 5.1305731)
(-240920 -6.4262899e-13 5.1310996)
(-240927.5 -6.400769e-13 5.1316262)
(-240935 -6.3752423e-13 5.1321529)
(-240942.5 -6.3497093e-13 5.1326798)
(-240950 0 2.5666034)
(-240960 -6.298625e-13 2.5668669)
(-240967.5 -6.2730738e-13 5.1342609)
(-240975 -6.2475163e-13 2.5673941)
(-240982.5 -6.221953e-13 5.1353156)
(-240990 0 2.5679215)
(-241000 0 2.5681853)
(-241007.5 -6.1452258e-13 5.1368983)
(-241015 -6.1196379e-13 5.1374261)
(-241022.5 -6.0940437e-13 5.1379541)
(-241030 0 5.1384821)
(-241037.5 -6.0428373e-13 5.1390102)
(-241045 -6.0172248e-13 2.5697692)
(-241055 0 2.5700334)
(-241062.5 -5.9659816e-13 5.1405953)
(-241070 0 2.5705619)
(-241077.5 0 5.1416525)
(-241085 -5.8890707e-13 2.5710907)
(-241095 -5.8634214e-13 2.5713551)
(-241102.5 -5.8377661e-13 5.1432392)
(-241110 -5.8121043e-13 2.5718842)
(-241117.5 -5.7864368e-13 5.1442975)
(-241125 -5.7607629e-13 2.5724134)
(-241135 -5.7350829e-13 2.5726782)
(-241142.5 -5.7093967e-13 5.1458859)
(-241147.5 0 5.1464155)
(-241157.5 -5.6580062e-13 2.5734726)
(-241167.5 -5.6323015e-13 5.1474752)
(-241172.5 -5.6065907e-13 5.1480052)
(-241180 -5.580874e-13 5.1485352)
(-241190 0 5.1490654)
(-241197.5 0 5.1495958)
(-241205 -5.5036862e-13 5.1501262)
(-241213 -5.4779445e-13 5.1506567)
(-241220.5 -5.4521968e-13 4.1209499)
(-241229 0 4.1213745)
(-241236.75 -5.4006828e-13 4.1217992)
(-241244.75 -5.3749165e-13 4.1222239)
(-241253 0 4.1226488)
(-241260.75 -5.3233654e-13 4.1230738)
(-241268.75 0 4.1234988)
(-241276.75 -5.2717896e-13 4.1239239)
(-241284.75 -5.2459924e-13 4.1243491)
(-241292.75 -5.220189e-13 4.1247744)
(-241300.5 -5.1943794e-13 4.1251998)
(-241308.75 -5.1685637e-13 4.1256253)
(-241316.75 -5.1427417e-13 4.1260509)
(-241324.5 -5.1169135e-13 4.1264765)
(-241332.5 -5.0910791e-13 4.1269023)
(-241340.5 -5.0652386e-13 4.1273281)
(-241348.5 0 4.127754)
(-241356.5 -5.0135388e-13 4.12818)
(-241364.5 -4.9876796e-13 4.1286061)
(-241372.5 -4.9618142e-13 4.1290323)
(-241380.5 -4.9359426e-13 4.1294585)
(-241388.25 0 4.1298849)
(-241396.25 0 4.1303113)
(-241404.5 -4.8582904e-13 4.1307379)
(-241412.5 -4.8323939e-13 4.1311645)
(-241420.5 -4.8064912e-13 4.1315912)
(-241428.25 0 4.132018)
(-241436.25 0 4.1324449)
(-241444.5 0 4.1328718)
(-241452.5 0 4.1332989)
(-241460.25 0 4.133726)
(-241468.25 0 4.1341533)
(-241476.5 0 4.1345806)
(-241484.5 -4.5990452e-13 4.135008)
(-241492.25 0 4.1354355)
(-241500.25 0 4.1358631)
(-241508.5 -4.52115e-13 4.1362908)
(-241516.5 0 4.1367185)
(-241524.5 0 4.1371464)
(-241532.5 0 4.1375743)
(-241540.5 -4.4172022e-13 4.1380024)
(-241548.5 0 4.1384305)
(-241556.5 0 4.3975374)
(-241564.5 -4.3391757e-13 4.3979924)
(-241572.5 0 4.1397154)
(-241580.5 0 4.1401439)
(-241588.5 0 4.1405724)
(-241596.5 -4.2350526e-13 4.1410011)
(-241604.5 0 4.1414298)
(-241612.75 0 4.1418587)
(-241620.75 0 4.1422876)
(-241628.75 -4.1308292e-13 4.1427166)
(-241636.75 0 4.4020923)
(-241644.75 0 4.1435749)
(-241652.75 0 4.1440041)
(-241660.75 0 4.1444335)
(-241669 0 4.144863)
(-241677 0 4.1452925)
(-241685 -3.9481963e-13 4.1457221)
(-241693 0 4.1461519)
(-241701 0 4.1465817)
(-241709 -3.8698307e-13 4.1470116)
(-241717 0 4.1474415)
(-241725.25 0 4.1478716)
(-241733.25 0 4.1483018)
(-241741.25 -3.7652551e-13 4.1487321)
(-241749.5 0 4.1491624)
(-241757.5 0 4.1495928)
(-241765.5 -3.686757e-13 4.1500233)
(-241773.5 0 4.150454)
(-241781.5 0 4.1508847)
(-241789.5 0 4.1513154)
(-241797.75 -3.5820045e-13 4.1517463)
(-241805.75 0 4.1521773)
(-241813.75 0 4.1526084)
(-241822 0 4.1530395)
(-241830 -3.4771508e-13 4.1534707)
(-241838 0 4.1539021)
(-241846 0 4.1543335)
(-241854 0 4.154765)
(-241862.25 0 4.1551966)
(-241870.5 0 4.1556283)
(-241878.25 0 4.1560601)
(-241886.25 -3.293413e-13 4.1564919)
(-241894.75 0 4.1569239)
(-241902.75 0 4.1573559)
(-241910.5 -3.214573e-13 4.1577881)
(-241918.75 0 4.1582203)
(-241927 0 4.1586526)
(-241935 0 4.159085)
(-241943 -3.1093641e-13 4.1595175)
(-241951 0 4.1599501)
(-241959.25 0 4.1603828)
(-241967.5 -3.0303905e-13 4.1608155)
(-241975.5 0 4.1612484)
(-241983.5 0 4.1616813)
(-241991.5 0 4.1621144)
(-241999.75 -2.9250033e-13 4.1625475)
(-242007.75 0 4.1629807)
(-242015.75 0 4.163414)
(-242024 0 4.1638474)
(-242032.25 -2.8195141e-13 4.1642809)
(-242040.25 0 4.1647145)
(-242048.25 0 4.1651481)
(-242056.5 0 4.1655819)
(-242064.5 0 4.1660157)
(-242072.75 0 4.1664497)
(-242080.75 0 4.1668837)
(-242088.75 -2.6346619e-13 4.1673178)
(-242097 0 4.167752)
(-242105.25 0 4.1681863)
(-242113.25 -2.5553434e-13 4.1686207)
(-242121.25 0 4.1690552)
(-242129.5 0 4.1694898)
(-242137.5 0 4.1699244)
(-242145.75 -2.4494959e-13 4.1703592)
(-242154 0 4.170794)
(-242162 0 4.1712289)
(-242170 0 4.171664)
(-242178.25 0 4.1720991)
(-242186.5 0 4.1725343)
(-242194.5 0 4.1729696)
(-242202.5 -2.2640155e-13 4.173405)
(-242210.75 0 4.1738405)
(-242219 0 4.174276)
(-242227 0 4.1747117)
(-242235.25 -2.1578853e-13 4.1751474)
(-242243.5 0 4.1755833)
(-242251.5 0 4.1760192)
(-242259.5 0 4.1764552)
(-242267.75 0 4.1768913)
(-242276 0 4.1773276)
(-242284 0 4.1777639)
(-242292.25 -1.9719092e-13 4.1782002)
(-242300.5 0 4.1786367)
(-242308.5 0 4.1790733)
(-242316.75 -1.8921084e-13 4.17951)
(-242325 0 4.1799467)
(-242333 0 4.1803835)
(-242341 0 4.1808205)
(-242349.25 -1.7856168e-13 4.1812575)
(-242357.5 0 4.1816946)
(-242365.75 0 4.1821318)
(-242374 0 4.1825691)
(-242382 0 4.1830065)
(-242390.25 0 4.183444)
(-242398.25 0 4.1838816)
(-242406.5 -1.5990073e-13 4.1843193)
(-242414.75 0 4.184757)
(-242422.75 0 4.1851949)
(-242431.25 0 4.1856328)
(-242439.25 -1.4922305e-13 4.1860709)
(-242447.25 0 4.186509)
(-242455.75 0 4.1869472)
(-242463.75 0 4.1873855)
(-242471.75 0 4.1878239)
(-242480.25 0 3.926496)
(-242488.5 0 4.188701)
(-242496.5 -1.3051211e-13 4.1891397)
(-242504.75 0 4.1895784)
(-242513 0 4.1900173)
(-242521 -1.2248337e-13 4.1904562)
(-242529.25 0 4.1908953)
(-242537.5 0 4.1913344)
(-242545.75 0 4.1917736)
(-242554 -1.1176926e-13 4.192213)
(-242562 0 4.1926524)
(-242570.25 0 4.1930919)
(-242578.5 0 4.1935315)
(-242586.75 0 4.1939712)
(-242595 0 4.1944109)
(-242603.25 0 4.1948508)
(-242611.5 -9.2994425e-14 4.1952908)
(-242619.5 0 4.1957308)
(-242627.75 0 4.196171)
(-242636 0 4.1966112)
(-242644.25 -8.2251561e-14 4.1970516)
(-242652.5 0 4.197492)
(-242660.5 0 4.1979325)
(-242668.75 0 4.1983731)
(-242677.25 0 4.1988138)
(-242685.5 0 4.1992546)
(-242693.5 0 4.1996955)
(-242701.75 -6.3426311e-14 4.2001365)
(-242710 0 4.2005776)
(-242718.15 0 4.2010187)
(-242726.45 0 4.1752009)
(-242734.7 -5.2654584e-14 4.2019014)
(-242742.92 0 4.1760782)
(-242751.17 0 4.1765169)
(-242759.4 -4.4568883e-14 4.1769558)
(-242767.62 0 4.1773948)
(-242775.87 0 4.1778338)
(-242784.07 0 4.178273)
(-242792.25 0 4.152431)
(-242800.45 0 4.1265836)
(-242808.57 0 4.1007308)
(-242816.62 -2.5679206e-14 4.0222935)
(-242824.57 0 3.9438397)
(-242832.3 0 3.8127794)
(-242839.77 0 3.5239047)
(-242846.57 -1.4870643e-14 3.129767)
(-242850.52 0 2.8933663)
(-242855.57 0 1.8151207)
(-242900.87 0 -5.8668771)
(-242881.3 0 -10.861443)
(-242122.13 0 49.331614)
(-183387.58 0 -67993.4)
(-339323.67 0 -45544.332)
(-291963.75 1.2695949e-12 -33805.951)
(-265554.03 1.2670284e-12 -23413.195)
(-255580.1 0 -15284.378)
(-249664.18 0 -9840.4122)
(-245663.57 0 -6309.1009)
(-243150.68 0 -4023.0173)
(-241612.93 0 -2554.6715)
(-240662.77 0 -1621.5405)
(-240065.17 -1.2500093e-12 -1028.58)
(-239697.61 1.2475985e-12 -655.75412)
(-239467.57 -1.2451879e-12 -418.02253)
(-239322.54 0 -262.85485)
(-239237.53 0 -167.74323)
(-239182.52 -1.2379549e-12 -105.163)
(-239147.51 0 -65.107427)
(-239130.01 -1.233131e-12 -40.070123)
(-239122.5 1.2307183e-12 -22.541702)
(-239117.5 -1.2283051e-12 -12.524423)
(-239117.5 -1.2258914e-12 -5.010271)
(-239120 0 0)
(-239122.5 -1.2210622e-12 2.5056377)
(-239130 -1.2186469e-12 5.0117777)
(-239135 -1.2162309e-12 7.5184201)
(-239140 0 10.025565)
(-239150 -1.2113974e-12 10.02657)
(-239157.5 -1.2089798e-12 10.027576)
(-239162.5 0 10.028581)
(-239170 -1.2041428e-12 10.029587)
(-239177.5 -1.2017235e-12 10.030593)
(-239182.5 -1.1993036e-12 10.0316)
(-239192.5 0 10.032606)
(-239200 -1.1944622e-12 10.033613)
(-239205 -1.1920406e-12 10.034619)
(-239215 -1.1896185e-12 10.035626)
(-239222.5 0 12.545792)
(-239230 -1.1847725e-12 10.037641)
(-239237.5 -1.1823487e-12 12.548311)
(-239245 0 10.039657)
(-239252.5 -1.1774993e-12 12.550831)
(-239260 -1.1750737e-12 10.041673)
(-239270 -1.1726476e-12 10.042681)
(-239277.5 0 10.04369)
(-239282.5 -1.1677937e-12 10.044699)
(-239290 -1.1653659e-12 12.557135)
(-239297.5 0 10.046717)
(-239305 -1.1605086e-12 12.559658)
(-239315 -1.1580791e-12 12.56092)
(-239322.5 -1.1556489e-12 10.049746)
(-239327.5 0 10.050756)
(-239335 -1.1507871e-12 12.564708)
(-239345 -1.1483552e-12 10.052777)
(-239352.5 -1.1459229e-12 10.053788)
(-239360 0 12.568498)
(-239367.5 -1.1410564e-12 10.05581)
(-239372.5 -1.1386223e-12 10.056821)
(-239382.5 0 10.057833)
(-239390 -1.1337524e-12 10.058844)
(-239397.5 -1.1313166e-12 10.059856)
(-239405 -1.1288803e-12 10.060868)
(-239412.5 0 10.061881)
(-239422.5 -1.1240058e-12 10.062893)
(-239427.5 -1.1215677e-12 10.063906)
(-239435 0 12.581148)
(-239442.5 -1.1166899e-12 10.065932)
(-239450 -1.1142501e-12 12.583681)
(-239460 -1.1118097e-12 12.584948)
(-239467.5 0 10.068972)
(-239472.5 -1.1069272e-12 10.069986)
(-239480 -1.1044852e-12 12.588751)
(-239490 0 12.590019)
(-239497.5 -1.0995992e-12 10.073029)
(-239505 -1.0971554e-12 12.592555)
(-239512.5 -1.094711e-12 10.075059)
(-239520 0 10.076074)
(-239527.5 -1.0898205e-12 10.07709)
(-239535 -1.0873744e-12 10.078105)
(-239542.5 -1.0849277e-12 10.079121)
(-239550 0 12.600171)
(-239557.5 -1.0800326e-12 10.081153)
(-239565 -1.0775843e-12 12.602712)
(-239572.5 0 12.603983)
(-239580 -1.0726857e-12 10.084203)
(-239590 -1.0702355e-12 10.08522)
(-239597.5 -1.0677848e-12 12.607797)
(-239605 0 12.609068)
(-239612.5 -1.0628816e-12 10.088272)
(-239617.5 -1.0604292e-12 10.08929)
(-239625 0 10.090308)
(-239635 -1.0555226e-12 10.091327)
(-239642.5 -1.0530685e-12 12.615431)
(-239650 -1.0506137e-12 10.093364)
(-239660 0 12.617978)
(-239665 -1.0457024e-12 10.095402)
(-239672.5 -1.0432459e-12 10.096421)
(-239682.5 -1.0407889e-12 10.09744)
(-239687.5 0 10.09846)
(-239695 -1.0358731e-12 12.62435)
(-239705 -1.0334143e-12 12.625625)
(-239712.5 0 10.10152)
(-239717.5 -1.0284949e-12 10.102541)
(-239727.5 -1.0260343e-12 10.103562)
(-239735 -1.0235732e-12 10.104582)
(-239740 0 12.632004)
(-239750 -1.0186493e-12 10.106625)
(-239760 -1.0161864e-12 12.634558)
(-239765 0 10.108668)
(-239772.5 -1.0112589e-12 10.10969)
(-239782.5 -1.0087943e-12 10.110712)
(-239787.5 -1.0063291e-12 10.111735)
(-239795 0 12.640947)
(-239805 -1.0013971e-12 12.642225)
(-239812.5 -9.9893012e-13 10.114803)
(-239817.5 0 10.115826)
(-239827.5 -9.9399455e-13 10.11685)
(-239835 -9.9152586e-13 10.117873)
(-239842.5 -9.8905662e-13 10.118897)
(-239850 0 10.119921)
(-239857.5 -9.8411637e-13 10.120945)
(-239867.5 -9.8164537e-13 10.12197)
(-239872.5 -9.7917378e-13 10.122994)
(-239880 0 12.655024)
(-239890 -9.7422891e-13 12.656305)
(-239897.5 -9.7175553e-13 10.12607)
(-239902.5 0 10.127095)
(-239910 -9.6680718e-13 12.660151)
(-239920 -9.6433205e-13 10.129147)
(-239927.5 -9.6185642e-13 12.662716)
(-239935 0 12.663999)
(-239942.5 -9.5690333e-13 12.665282)
(-239950 -9.5442587e-13 10.133252)
(-239960 0 12.667849)
(-239967.5 -9.4946926e-13 10.135306)
(-239972.5 -9.4699008e-13 10.136334)
(-239980 -9.4451038e-13 12.671702)
(-239990 0 12.672986)
(-239997.5 -9.3954905e-13 10.139417)
(-240005 -9.3706756e-13 12.675556)
(-240012.5 0 10.141474)
(-240020 -9.3210276e-13 12.678128)
(-240027.5 -9.2961944e-13 10.143531)
(-240035 -9.2713562e-13 12.6807)
(-240042.5 0 12.681987)
(-240050 -9.2216608e-13 10.146619)
(-240060 -9.1968045e-13 10.147648)
(-240067.5 -9.1719426e-13 12.685848)
(-240075 0 12.687135)
(-240082.5 -9.1222002e-13 10.150738)
(-240090 -9.0973208e-13 12.689711)
(-240097.5 0 10.1528)
(-240105 -9.0475435e-13 12.692288)
(-240112.5 -9.0226456e-13 10.154862)
(-240120 -8.9977428e-13 12.694866)
(-240130 0 12.696156)
(-240137.5 -8.9479178e-13 10.157956)
(-240142.5 -8.9229967e-13 10.158988)
(-240152.5 0 10.16002)
(-240160 -8.8731368e-13 10.161053)
(-240167.5 -8.8481987e-13 12.702607)
(-240175 -8.8232533e-13 10.163118)
(-240182.5 -8.7983029e-13 10.164151)
(-240192.5 -8.7733464e-13 10.165184)
(-240197.5 -8.7483839e-13 10.166218)
(-240205 -8.7234161e-13 12.709064)
(-240215 0 12.710356)
(-240222.5 -8.6734613e-13 10.169319)
(-240230 -8.6484756e-13 12.712942)
(-240237.5 -8.6234832e-13 10.171388)
(-240245 -8.5984857e-13 12.715528)
(-240252.5 -8.5734815e-13 10.173457)
(-240260 -8.5484722e-13 12.718116)
(-240270 0 12.71941)
(-240277.5 -8.4984343e-13 10.176563)
(-240282.5 -8.4734068e-13 10.177599)
(-240290 0 10.178635)
(-240300 -8.4233341e-13 10.179671)
(-240307.5 -8.3982891e-13 12.725884)
(-240315 -8.3732374e-13 10.181744)
(-240325 0 10.182781)
(-240332.5 -8.3231168e-13 10.183818)
(-240337.5 -8.2980477e-13 10.184855)
(-240345 0 12.732366)
(-240355 -8.2478916e-13 10.18693)
(-240362.5 -8.222805e-13 12.73496)
(-240370 -8.1977122e-13 12.736258)
(-240377.5 -8.1726132e-13 12.737555)
(-240385 -8.1475085e-13 12.738854)
(-240395 -8.1223976e-13 12.740152)
(-240402.5 -8.0972803e-13 10.19316)
(-240407.5 0 10.194199)
(-240415 -8.0470294e-13 12.744049)
(-240425 -8.0218943e-13 10.196278)
(-240432.5 -7.996754e-13 12.746648)
(-240440 -7.9716076e-13 12.747948)
(-240447.5 -7.9464549e-13 12.749248)
(-240455 -7.921296e-13 10.200439)
(-240465 0 10.201479)
(-240472.5 -7.8709612e-13 12.75315)
(-240480 -7.8457847e-13 12.754451)
(-240487.5 0 10.204602)
(-240495 -7.7954137e-13 12.757055)
(-240502.5 -7.7702189e-13 10.206685)
(-240510 -7.7450189e-13 12.759659)
(-240517.5 0 12.760962)
(-240525 -7.6945997e-13 10.209812)
(-240535 -7.6693813e-13 10.210854)
(-240542.5 0 12.764871)
(-240550 -7.6189268e-13 12.766175)
(-240557.5 -7.5936903e-13 12.767479)
(-240565 -7.5684475e-13 10.215026)
(-240575 -7.5431995e-13 12.770087)
(-240582.5 -7.5179445e-13 10.217114)
(-240587.5 -7.4926841e-13 10.218158)
(-240595 0 12.774002)
(-240605 0 10.220246)
(-240612.5 -7.4168671e-13 12.776614)
(-240620 -7.3915823e-13 10.222336)
(-240630 -7.3662922e-13 12.779226)
(-240637.5 0 10.224426)
(-240642.5 -7.3156925e-13 10.225472)
(-240650 -7.2903845e-13 12.783147)
(-240660 0 10.227563)
(-240667.5 -7.2397491e-13 12.785762)
(-240675 0 10.229656)
(-240685 0 12.788378)
(-240692.5 -7.1637504e-13 10.231749)
(-240697.5 -7.1384056e-13 10.232796)
(-240705 -7.1130549e-13 10.233843)
(-240715 -7.0876981e-13 10.234891)
(-240722.5 -7.0623355e-13 12.794923)
(-240730 -7.0369662e-13 10.236986)
(-240740 -7.0115911e-13 10.238034)
(-240747.5 -6.98621e-13 10.239083)
(-240752.5 0 10.240131)
(-240762.5 -6.9354298e-13 10.24118)
(-240770 -6.9100304e-13 10.242229)
(-240777.5 -6.8846252e-13 10.243278)
(-240785 -6.8592138e-13 10.244327)
(-240792.5 0 10.245377)
(-240802.5 0 12.808033)
(-240810 -6.7829439e-13 12.809346)
(-240817.5 -6.7575078e-13 10.248527)
(-240825 -6.7320662e-13 10.249577)
(-240832.5 0 10.250628)
(-240840 -6.681165e-13 12.814598)
(-240847.5 -6.6557048e-13 10.25273)
(-240855 0 10.253781)
(-240865 -6.6047669e-13 10.254833)
(-240872.5 0 12.819855)
(-240880 0 10.256936)
(-240890 -6.5283146e-13 12.822486)
(-240897.5 -6.5028177e-13 10.259041)
(-240902.5 -6.4773152e-13 10.260093)
(-240910 -6.4518072e-13 12.826433)
(-240920 -6.426292e-13 10.262199)
(-240927.5 -6.4007717e-13 12.829066)
(-240935 -6.3752444e-13 10.264306)
(-240945 -6.349712e-13 12.831699)
(-240952.5 0 10.266413)
(-240957.5 -6.2986272e-13 10.267468)
(-240967.5 -6.273076e-13 10.268522)
(-240975 -6.2475185e-13 10.269576)
(-240982.5 -6.2219552e-13 10.270631)
(-240992.5 0 10.271686)
(-240997.5 0 10.272741)
(-241005 -6.1452285e-13 12.842246)
(-241015 -6.1196401e-13 10.274852)
(-241022.5 -6.0940464e-13 12.844885)
(-241030 0 10.276964)
(-241040 -6.0428394e-13 10.27802)
(-241047.5 -6.017227e-13 10.279077)
(-241052.5 0 10.280134)
(-241062.5 -5.9659838e-13 10.281191)
(-241070 0 10.282248)
(-241077.5 0 10.283305)
(-241087.5 -5.8890728e-13 10.284363)
(-241092.5 -5.8634236e-13 10.28542)
(-241102.5 -5.8377682e-13 10.286478)
(-241110 -5.8121065e-13 10.287537)
(-241117.5 -5.786439e-13 10.288595)
(-241127.5 -5.7607651e-13 10.289654)
(-241132.5 -5.735085e-13 10.290713)
(-241140 -5.7093995e-13 12.864715)
(-241150 0 12.866039)
(-241157.5 -5.6580084e-13 10.293891)
(-241165 -5.6323042e-13 12.868688)
(-241172.5 -5.6065934e-13 12.870013)
(-241180 -5.5808762e-13 10.29707)
(-241190 0 10.298131)
(-241197.5 0 12.873989)
(-241205 -5.5036884e-13 10.300252)
(-241214 -5.4779473e-13 12.876642)
(-241221.5 -5.4521992e-13 11.332612)
(-241229 0 11.33378)
(-241236.75 -5.4006852e-13 11.334948)
(-241244.75 -5.3749189e-13 11.078477)
(-241253 0 11.337284)
(-241260.75 -5.3233678e-13 11.338453)
(-241268.75 0 11.081903)
(-241276.75 -5.271792e-13 11.340791)
(-241284.75 -5.2459948e-13 11.084188)
(-241292.75 -5.2201914e-13 11.34313)
(-241300.5 -5.1943818e-13 11.344299)
(-241308.75 -5.168566e-13 11.087618)
(-241316.75 -5.1427441e-13 11.34664)
(-241324.5 -5.1169159e-13 11.34781)
(-241332.5 -5.0910815e-13 11.348981)
(-241340.5 -5.065241e-13 11.350152)
(-241348.5 0 11.351323)
(-241356.5 -5.0135412e-13 11.352495)
(-241364.5 -4.987682e-13 11.353667)
(-241372.5 -4.9618166e-13 11.354839)
(-241380.5 -4.935945e-13 11.356011)
(-241388.25 0 11.357183)
(-241396.25 0 11.100212)
(-241404.5 -4.8582928e-13 11.101358)
(-241412.5 -4.8323963e-13 11.360702)
(-241420.5 -4.8064936e-13 11.361876)
(-241428.25 0 11.363049)
(-241436.25 0 11.105946)
(-241444.5 0 11.365398)
(-241452.5 0 11.366572)
(-241460.25 0 11.367747)
(-241468.25 0 11.110537)
(-241476.5 0 11.370097)
(-241484.5 -4.5990476e-13 11.371272)
(-241492.25 0 11.372448)
(-241500.25 0 11.115132)
(-241508.5 -4.5211523e-13 11.116281)
(-241516.5 0 11.375976)
(-241524.5 0 11.377153)
(-241532.5 0 11.378329)
(-241540.5 -4.4172046e-13 11.379507)
(-241548.25 0 11.380684)
(-241556.25 0 11.381861)
(-241564.75 -4.3391781e-13 11.383039)
(-241572.75 0 11.384217)
(-241580.5 0 11.385396)
(-241588.5 0 11.386574)
(-241596.5 -4.235055e-13 11.387753)
(-241604.5 0 11.388932)
(-241612.75 0 11.131245)
(-241620.75 0 11.391291)
(-241628.5 -4.1308316e-13 11.392471)
(-241636.75 0 11.393651)
(-241645 0 11.394831)
(-241652.75 0 11.396011)
(-241660.75 0 11.138165)
(-241669 0 11.398373)
(-241677 0 11.399554)
(-241685 -3.9481987e-13 11.400736)
(-241693 0 11.401918)
(-241701 0 11.4031)
(-241709 -3.8698331e-13 11.404282)
(-241717 0 11.405464)
(-241725.25 0 11.147405)
(-241733.25 0 11.40783)
(-241741.25 -3.7652574e-13 11.149717)
(-241749.5 0 11.410197)
(-241757.5 0 11.41138)
(-241765.5 -3.6867594e-13 11.412564)
(-241773.5 0 11.413748)
(-241781.5 0 11.414933)
(-241789.5 0 11.416117)
(-241797.75 -3.582007e-13 11.417302)
(-241805.75 0 11.418488)
(-241813.75 0 11.419673)
(-241822 0 11.420859)
(-241830 -3.4771533e-13 11.422045)
(-241838 0 11.423231)
(-241846 0 11.424417)
(-241854 0 11.425604)
(-241862.25 0 11.167091)
(-241870.5 0 11.427978)
(-241878.25 0 11.429165)
(-241886.25 -3.2934154e-13 11.170572)
(-241894.75 0 11.171733)
(-241902.75 0 11.432729)
(-241910.5 -3.2145754e-13 11.433917)
(-241918.75 0 11.175217)
(-241927 0 11.436295)
(-241935 0 11.437484)
(-241943 -3.1093665e-13 11.438673)
(-241951 0 11.439863)
(-241959.25 0 11.181029)
(-241967.5 -3.030393e-13 11.442243)
(-241975.5 0 11.443433)
(-241983.5 0 11.444624)
(-241991.5 0 11.445814)
(-241999.75 -2.9250058e-13 11.447006)
(-242007.75 0 11.448197)
(-242015.75 0 11.189175)
(-242024 0 11.19034)
(-242032.25 -2.8195164e-13 11.191505)
(-242040.25 0 11.452965)
(-242048.25 0 11.193836)
(-242056.5 0 11.45535)
(-242064.5 0 11.456543)
(-242072.75 0 11.457737)
(-242080.75 0 11.45893)
(-242088.75 -2.6346642e-13 11.199667)
(-242097 0 11.461318)
(-242105.25 0 11.202001)
(-242113.25 -2.5553459e-13 11.463707)
(-242121.25 0 11.204336)
(-242129.5 0 11.466097)
(-242137.5 0 11.467292)
(-242145.75 -2.4494983e-13 11.20784)
(-242154 0 11.469684)
(-242162 0 11.47088)
(-242170 0 11.472076)
(-242178.25 0 11.212516)
(-242186.5 0 11.474469)
(-242194.5 0 11.475666)
(-242202.5 -2.264018e-13 11.476864)
(-242210.75 0 11.217196)
(-242219 0 11.479259)
(-242227 0 11.480457)
(-242235.25 -2.1578877e-13 11.220709)
(-242243.5 0 11.482854)
(-242251.5 0 11.484053)
(-242259.5 0 11.485252)
(-242267.75 0 11.225396)
(-242276 0 11.487651)
(-242284 0 11.488851)
(-242292.25 -1.9719116e-13 11.228913)
(-242300.5 0 11.491251)
(-242308.5 0 11.492452)
(-242316.75 -1.8921108e-13 11.232433)
(-242325 0 11.494853)
(-242333 0 11.496055)
(-242341 0 11.497256)
(-242349.25 -1.7856192e-13 11.23713)
(-242357.5 0 11.238304)
(-242365.75 0 11.239479)
(-242374 0 11.502065)
(-242382 0 11.503268)
(-242390.25 0 11.504471)
(-242398.25 0 11.505674)
(-242406.5 -1.5990097e-13 11.245358)
(-242414.75 0 11.508082)
(-242422.75 0 11.247711)
(-242431.25 0 11.248888)
(-242439.25 -1.492233e-13 11.511695)
(-242447.25 0 11.251243)
(-242455.75 0 11.252421)
(-242463.75 0 11.51531)
(-242472 0 11.254777)
(-242480.25 0 11.255955)
(-242488.25 0 11.518928)
(-242496.5 -1.3051236e-13 11.520134)
(-242504.75 0 11.259492)
(-242513 0 11.522548)
(-242521 -1.2248362e-13 11.523755)
(-242529.25 0 11.263031)
(-242537.5 0 11.264211)
(-242545.75 0 11.265392)
(-242554 -1.1176951e-13 11.528586)
(-242562 0 11.529794)
(-242570.25 0 11.268934)