/*--------------------------------*- C++ -*----------------------------------*\
  =========                 |
  \\      /  F ield         | OpenFOAM: The Open Source CFD Toolbox
   \\    /   O peration     | Website:  https://openfoam.org
    \\  /    A nd           | Version:  6
     \\/     M anipulation  |
\*---------------------------------------------------------------------------*/
FoamFile
{
    version     2.0;
    format      ascii;
    class       volScalarField;
    location    "10000";
    object      p;
}
// * * * * * * * * * * * * * * * * * * * * * * * * * * * * * * * * * * * * * //

dimensions      [0 2 -2 0 0 0 0];

internalField   nonuniform List<scalar> 
40000
(
20821074
20796124
20773932
20753559
20733981
20715209
20697269
20680125
20663733
20648043
20633005
20618564
20604668
20591264
20578303
20565736
20553519
20541612
20529976
20518577
20507385
20496372
20485513
20474786
20464172
20453654
20443216
20432848
20422535
20412270
20402044
20391848
20381678
20371528
20361392
20351269
20341153
20331044
20320937
20310832
20300728
20290622
20280514
20270403
20260288
20250170
20240047
20229921
20219789
20209653
20199513
20189368
20179219
20169065
20158908
20148746
20138581
20128412
20118240
20108064
20097886
20087704
20077520
20067334
20057145
20046954
20036760
20026565
20016368
20006170
19995970
19985769
19975566
19965362
19955157
19944951
19934744
19924536
19914327
19904117
19893907
19883696
19873485
19863272
19853060
19842847
19832633
19822419
19812204
19801989
19791774
19781559
19771343
19761127
19750910
19740693
19730476
19720259
19710042
19699824
19689606
19679388
19669170
19658951
19648732
19638513
19628294
19618075
19607855
19597636
19587416
19577196
19566976
19556755
19546535
19536314
19526093
19515872
19505651
19495430
19485208
19474987
19464765
19454543
19444321
19434099
19423876
19413654
19403431
19393208
19382985
19372762
19362539
19352316
19342092
19331868
19321644
19311420
19301196
19290972
19280747
19270523
19260298
19250073
19239848
19229622
19219397
19209171
19198946
19188720
19178494
19168268
19158041
19147815
19137588
19127362
19117135
19106908
19096680
19086453
19076226
19065998
19055770
19045542
19035314
19025086
19014857
19004629
18994400
18984171
18973942
18963713
18953484
18943254
18933025
18922795
18912565
18902335
18892105
18881874
18871644
18861413
18851182
18840951
18830720
18820489
18810257
18800026
18789794
18779562
18769330
18759098
18748866
18738633
18728401
18718168
18707935
18697702
18687469
18677235
18667002
18656768
18646534
18636300
18626066
18615832
18605597
18595363
18585128
18574893
18564658
18554423
18544187
18533952
18523716
18513481
18503245
18493008
18482772
18472536
18462299
18452063
18441826
18431589
18421352
18411114
18400877
18390639
18380401
18370164
18359925
18349687
18339449
18329210
18318972
18308733
18298494
18288255
18278016
18267776
18257537
18247297
18237057
18226817
18216577
18206336
18196096
18185855
18175614
18165374
18155132
18144891
18134650
18124408
18114167
18103925
18093683
18083441
18073198
18062956
18052713
18042471
18032228
18021985
18011741
18001498
17991255
17981011
17970767
17960523
17950279
17940035
17929790
17919546
17909301
17899056
17888811
17878566
17868321
17858075
17847830
17837584
17827338
17817092
17806846
17796599
17786353
17776106
17765859
17755612
17745365
17735118
17724870
17714623
17704375
17694127
17683879
17673631
17663382
17653134
17642885
17632636
17622388
17612138
17601889
17591640
17581390
17571140
17560891
17550641
17540390
17530140
17519890
17509639
17499388
17489137
17478886
17468635
17458384
17448132
17437880
17427629
17417377
17407124
17396872
17386620
17376367
17366114
17355861
17345608
17335355
17325102
17314848
17304595
17294341
17284087
17273833
17263578
17253324
17243069
17232815
17222560
17212305
17202050
17191794
17181539
17171283
17161027
17150771
17140515
17130259
17120003
17109746
17099490
17089233
17078976
17068719
17058461
17048204
17037946
17027688
17017430
17007172
16996914
16986656
16976397
16966139
16955880
16945621
16935362
16925102
16914843
16904583
16894324
16884064
16873804
16863544
16853283
16843023
16832762
16822501
16812240
16801979
16791718
16781457
16771195
16760933
16750671
16740409
16730147
16719885
16709622
16699360
16689097
16678834
16668571
16658308
16648044
16637781
16627517
16617253
16606989
16596725
16586461
16576196
16565932
16555667
16545402
16535137
16524872
16514606
16504341
16494075
16483809
16473543
16463277
16453011
16442744
16432478
16422211
16411944
16401677
16391410
16381143
16370875
16360607
16350340
16340072
16329804
16319535
16309267
16298998
16288730
16278461
16268192
16257923
16247653
16237384
16227114
16216844
16206574
16196304
16186034
16175764
16165493
16155222
16144951
16134680
16124409
16114138
16103866
16093595
16083323
16073051
16062779
16052507
16042234
16031962
16021689
16011416
16001143
15990870
15980597
15970323
15960050
15949776
15939502
15929228
15918954
15908679
15898405
15888130
15877855
15867580
15857305
15847030
15836754
15826479
15816203
15805927
15795651
15785375
15775099
15764822
15754545
15744269
15733992
15723714
15713437
15703160
15692882
15682604
15672327
15662049
15651770
15641492
15631213
15620935
15610656
15600377
15590098
15579819
15569539
15559260
15548980
15538700
15528420
15518140
15507859
15497579
15487298
15477017
15466737
15456455
15446174
15435893
15425611
15415329
15405048
15394766
15384483
15374201
15363919
15353636
15343353
15333070
15322787
15312504
15302220
15291937
15281653
15271369
15261085
15250801
15240517
15230232
15219948
15209663
15199378
15189093
15178808
15168522
15158237
15147951
15137665
15127379
15117093
15106806
15096520
15086233
15075947
15065660
15055373
15045085
15034798
15024510
15014223
15003935
14993647
14983359
14973070
14962782
14952493
14942204
14931916
14921626
14911337
14901048
14890758
14880469
14870179
14859889
14849599
14839308
14829018
14818727
14808436
14798145
14787854
14777563
14767272
14756980
14746688
14736397
14726105
14715812
14705520
14695228
14684935
14674642
14664349
14654056
14643763
14633470
14623176
14612882
14602589
14592295
14582000
14571706
14561412
14551117
14540822
14530527
14520232
14509937
14499642
14489346
14479050
14468755
14458459
14448162
14437866
14427570
14417273
14406976
14396679
14386382
14376085
14365788
14355490
14345192
14334894
14324596
14314298
14304000
14293702
14283403
14273104
14262805
14252506
14242207
14231907
14221608
14211308
14201008
14190708
14180408
14170108
14159807
14149507
14139206
14128905
14118604
14108303
14098001
14087700
14077398
14067096
14056794
14046492
14036190
14025887
14015585
14005282
13994979
13984676
13974373
13964069
13953766
13943462
13933158
13922854
13912550
13902245
13891941
13881636
13871332
13861027
13850721
13840416
13830111
13819805
13809500
13799194
13788888
13778581
13768275
13757969
13747662
13737355
13727048
13716741
13706434
13696126
13685819
13675511
13665203
13654895
13644587
13634279
13623970
13613662
13603353
13593044
13582735
13572425
13562116
13551806
13541497
13531187
13520877
13510566
13500256
13489946
13479635
13469324
13459013
13448702
13438391
13428079
13417768
13407456
13397144
13386832
13376520
13366207
13355895
13345582
13335269
13324956
13314643
13304330
13294017
13283703
13273389
13263075
13252761
13242447
13232133
13221818
13211503
13201189
13190874
13180558
13170243
13159928
13149612
13139296
13128980
13118664
13108348
13098032
13087715
13077398
13067081
13056764
13046447
13036130
13025812
13015495
13005177
12994859
12984541
12974223
12963904
12953586
12943267
12932948
12922629
12912310
12901991
12891671
12881352
12871032
12860712
12850392
12840071
12829751
12819430
12809110
12798789
12788468
12778147
12767825
12757504
12747182
12736860
12726538
12716216
12705894
12695571
12685249
12674926
12664603
12654280
12643957
12633633
12623310
12612986
12602662
12592338
12582014
12571690
12561365
12551041
12540716
12530391
12520066
12509741
12499415
12489090
12478764
12468438
12458112
12447786
12437460
12427133
12416807
12406480
12396153
12385826
12375499
12365171
12354844
12344516
12334188
12323860
12313532
12303203
12292875
12282546
12272217
12261888
12251559
12241230
12230901
12220571
12210241
12199911
12189581
12179251
12168921
12158590
12148259
12137929
12127598
12117266
12106935
12096604
12086272
12075940
12065608
12055276
12044944
12034612
12024279
12013946
12003614
11993281
11982947
11972614
11962281
11951947
11941613
11931279
11920945
11910611
11900276
11889942
11879607
11869272
11858937
11848602
11838267
11827931
11817595
11807260
11796924
11786587
11776251
11765915
11755578
11745241
11734904
11724567
11714230
11703893
11693555
11683217
11672880
11662542
11652203
11641865
11631527
11621188
11610849
11600510
11590171
11579832
11569492
11559153
11548813
11538473
11528133
11517793
11507453
11497112
11486772
11476431
11466090
11455749
11445407
11435066
11424724
11414383
11404041
11393699
11383356
11373014
11362671
11352329
11341986
11331643
11321300
11310956
11300613
11290269
11279925
11269582
11259237
11248893
11238549
11228204
11217859
11207515
11197170
11186824
11176479
11166133
11155788
11145442
11135096
11124750
11114404
11104057
11093711
11083364
11073017
11062670
11052323
11041975
11031628
11021280
11010932
11000584
10990236
10979888
10969539
10959190
10948842
10938493
10928144
10917794
10907445
10897095
10886746
10876396
10866046
10855695
10845345
10834995
10824644
10814293
10803942
10793591
10783240
10772888
10762536
10752185
10741833
10731481
10721128
10710776
10700423
10690071
10679718
10669365
10659012
10648658
10638305
10627951
10617597
10607243
10596889
10586535
10576181
10565826
10555471
10545116
10534761
10524406
10514051
10503695
10493339
10482984
10472628
10462271
10451915
10441559
10431202
10420845
10410488
10400131
10389774
10379416
10369059
10358701
10348343
10337985
10327627
10317269
10306910
10296551
10286193
10275834
10265474
10255115
10244756
10234396
10224036
10213676
10203316
10192956
10182595
10172235
10161874
10151513
10141152
10130791
10120430
10110068
10099707
10089345
10078983
10068621
10058258
10047896
10037533
10027171
10016808
10006444
9996081.3
9985717.9
9975354.3
9964990.6
9954626.7
9944262.7
9933898.5
9923534.2
9913169.7
9902805
9892440.2
9882075.2
9871710.1
9861344.8
9850979.4
9840613.8
9830248
9819882.1
9809516
9799149.8
9788783.4
9778416.9
9768050.2
9757683.3
9747316.3
9736949.1
9726581.8
9716214.3
9705846.6
9695478.8
9685110.9
9674742.8
9664374.5
9654006
9643637.4
9633268.7
9622899.8
9612530.7
9602161.5
9591792.1
9581422.6
9571052.9
9560683
9550313
9539942.8
9529572.5
9519202
9508831.4
9498460.6
9488089.6
9477718.5
9467347.2
9456975.8
9446604.2
9436232.5
9425860.6
9415488.5
9405116.3
9394743.9
9384371.4
9373998.7
9363625.8
9353252.8
9342879.6
9332506.3
9322132.8
9311759.2
9301385.4
9291011.4
9280637.3
9270263
9259888.6
9249514
9239139.3
9228764.4
9218389.3
9208014.1
9197638.7
9187263.2
9176887.5
9166511.6
9156135.6
9145759.4
9135383.1
9125006.6
9114630
9104253.2
9093876.2
9083499.1
9073121.8
9062744.4
9052366.8
9041989.1
9031611.1
9021233.1
9010854.9
9000476.5
8990097.9
8979719.2
8969340.4
8958961.4
8948582.2
8938202.9
8927823.4
8917443.7
8907063.9
8896684
8886303.8
8875923.6
8865543.1
8855162.5
8844781.8
8834400.9
8824019.8
8813638.6
8803257.2
8792875.6
8782493.9
8772112.1
8761730
8751347.9
8740965.5
8730583
8720200.4
8709817.6
8699434.6
8689051.5
8678668.2
8668284.7
8657901.1
8647517.4
8637133.4
8626749.4
8616365.1
8605980.7
8595596.2
8585211.5
8574826.6
8564441.6
8554056.4
8543671
8533285.5
8522899.8
8512514
8502128
8491741.9
8481355.6
8470969.1
8460582.5
8450195.8
8439808.8
8429421.7
8419034.5
8408647.1
8398259.5
8387871.8
8377483.9
8367095.9
8356707.7
8346319.3
8335930.8
8325542.1
8315153.3
8304764.3
8294375.1
8283985.8
8273596.3
8263206.7
8252816.9
8242427
8232036.9
8221646.6
8211256.2
8200865.6
8190474.9
8180084
8169692.9
8159301.7
8148910.3
8138518.8
8128127.1
8117735.2
8107343.2
8096951.1
8086558.7
8076166.2
8065773.6
8055380.8
8044987.8
8034594.7
8024201.4
8013808
8003414.4
7993020.6
7982626.7
7972232.6
7961838.4
7951444
7941049.5
7930654.7
7920259.9
7909864.8
7899469.7
7889074.3
7878678.8
7868283.1
7857887.3
7847491.3
7837095.2
7826698.9
7816302.4
7805905.8
7795509
7785112.1
7774715
7764317.7
7753920.3
7743522.7
7733125
7722727.1
7712329.1
7701930.9
7691532.5
7681134
7670735.3
7660336.4
7649937.4
7639538.3
7629138.9
7618739.4
7608339.8
7597940
7587540
7577139.9
7566739.6
7556339.2
7545938.6
7535537.8
7525136.9
7514735.8
7504334.6
7493933.2
7483531.7
7473129.9
7462728.1
7452326
7441923.8
7431521.5
7421119
7410716.3
7400313.5
7389910.5
7379507.4
7369104
7358700.6
7348297
7337893.2
7327489.2
7317085.1
7306680.9
7296276.4
7285871.8
7275467.1
7265062.2
7254657.1
7244251.9
7233846.5
7223441
7213035.3
7202629.4
7192223.4
7181817.2
7171410.9
7161004.4
7150597.8
7140190.9
7129784
7119376.8
7108969.5
7098562.1
7088154.5
7077746.7
7067338.8
7056930.7
7046522.4
7036114
7025705.4
7015296.7
7004887.8
6994478.8
6984069.5
6973660.2
6963250.6
6952841
6942431.1
6932021.1
6921610.9
6911200.6
6900790.1
6890379.5
6879968.7
6869557.7
6859146.6
6848735.3
6838323.8
6827912.2
6817500.4
6807088.5
6796676.4
6786264.2
6775851.8
6765439.2
6755026.5
6744613.6
6734200.6
6723787.3
6713374
6702960.5
6692546.8
6682132.9
6671718.9
6661304.8
6650890.4
6640475.9
6630061.3
6619646.5
6609231.5
6598816.4
6588401.1
6577985.7
6567570.1
6557154.3
6546738.4
6536322.3
6525906
6515489.6
6505073.1
6494656.3
6484239.5
6473822.4
6463405.2
6452987.8
6442570.3
6432152.6
6421734.8
6411316.8
6400898.6
6390480.3
6380061.8
6369643.1
6359224.3
6348805.4
6338386.2
6327966.9
6317547.5
6307127.9
6296708.1
6286288.2
6275868.1
6265447.9
6255027.4
6244606.9
6234186.1
6223765.2
6213344.2
6202923
6192501.6
6182080.1
6171658.4
6161236.5
6150814.5
6140392.3
6129970
6119547.5
6109124.9
6098702
6088279.1
6077855.9
6067432.6
6057009.2
6046585.6
6036161.8
6025737.8
6015313.8
6004889.5
5994465.1
5984040.5
5973615.8
5963190.8
5952765.8
5942340.6
5931915.2
5921489.6
5911063.9
5900638.1
5890212
5879785.9
5869359.5
5858933
5848506.3
5838079.5
5827652.5
5817225.4
5806798.1
5796370.6
5785943
5775515.2
5765087.2
5754659.1
5744230.8
5733802.4
5723373.8
5712945
5702516.1
5692087
5681657.8
5671228.4
5660798.8
5650369.1
5639939.2
5629509.2
5619079
5608648.6
5598218.1
5587787.4
5577356.6
5566925.6
5556494.4
5546063.1
5535631.6
5525199.9
5514768.1
5504336.2
5493904
5483471.7
5473039.3
5462606.7
5452173.9
5441740.9
5431307.8
5420874.6
5410441.2
5400007.6
5389573.8
5379139.9
5368705.9
5358271.7
5347837.3
5337402.7
5326968
5316533.1
5306098.1
5295662.9
5285227.6
5274792.1
5264356.4
5253920.5
5243484.6
5233048.4
5222612.1
5212175.6
5201739
5191302.2
5180865.2
5170428.1
5159990.8
5149553.3
5139115.7
5128678
5118240
5107801.9
5097363.7
5086925.3
5076486.7
5066048
5055609.1
5045170
5034730.8
5024291.4
5013851.9
5003412.2
4992972.3
4982532.3
4972092.1
4961651.7
4951211.2
4940770.5
4930329.7
4919888.7
4909447.6
4899006.2
4888564.8
4878123.1
4867681.3
4857239.4
4846797.2
4836355
4825912.5
4815469.9
4805027.1
4794584.2
4784141.1
4773697.9
4763254.4
4752810.9
4742367.1
4731923.2
4721479.2
4711034.9
4700590.6
4690146
4679701.3
4669256.4
4658811.4
4648366.2
4637920.9
4627475.3
4617029.7
4606583.8
4596137.8
4585691.7
4575245.3
4564798.9
4554352.2
4543905.4
4533458.4
4523011.3
4512564
4502116.6
4491668.9
4481221.2
4470773.2
4460325.1
4449876.9
4439428.4
4428979.8
4418531.1
4408082.2
4397633.1
4387183.9
4376734.5
4366284.9
4355835.2
4345385.3
4334935.3
4324485.1
4314034.7
4303584.2
4293133.5
4282682.6
4272231.6
4261780.5
4251329.1
4240877.6
4230426
4219974.1
4209522.2
4199070
4188617.7
4178165.2
4167712.6
4157259.8
4146806.8
4136353.7
4125900.4
4115447
4104993.4
4094539.6
4084085.7
4073631.6
4063177.4
4052722.9
4042268.4
4031813.6
4021358.7
4010903.7
4000448.4
3989993.1
3979537.5
3969081.8
3958625.9
3948169.9
3937713.7
3927257.3
3916800.8
3906344.1
3895887.3
3885430.3
3874973.1
3864515.8
3854058.3
3843600.6
3833142.8
3822684.8
3812226.7
3801768.4
3791309.9
3780851.3
3770392.5
3759933.5
3749474.4
3739015.1
3728555.7
3718096.1
3707636.3
3697176.4
3686716.3
3676256
3665795.6
3655335
3644874.3
3634413.4
3623952.3
3613491.1
3603029.7
3592568.2
3582106.4
3571644.6
3561182.5
3550720.3
3540258
3529795.4
3519332.7
3508869.9
3498406.9
3487943.7
3477480.4
3467016.9
3456553.2
3446089.4
3435625.4
3425161.2
3414696.9
3404232.4
3393767.8
3383303
3372838
3362372.9
3351907.6
3341442.2
3330976.5
3320510.8
3310044.8
3299578.7
3289112.5
3278646
3268179.4
3257712.7
3247245.8
3236778.7
3226311.5
3215844
3205376.5
3194908.7
3184440.9
3173972.8
3163504.6
3153036.2
3142567.7
3132099
3121630.1
3111161
3100691.9
3090222.5
3079753
3069283.3
3058813.4
3048343.4
3037873.3
3027402.9
3016932.4
3006461.8
2995991
2985520
2975048.8
2964577.5
2954106
2943634.4
2933162.6
2922690.6
2912218.5
2901746.2
2891273.8
2880801.1
2870328.4
2859855.4
2849382.3
2838909
2828435.6
2817962
2807488.3
2797014.3
2786540.3
2776066
2765591.6
2755117
2744642.3
2734167.4
2723692.3
2713217.1
2702741.7
2692266.2
2681790.5
2671314.6
2660838.5
2650362.3
2639886
2629409.4
2618932.8
2608455.9
2597978.9
2587501.7
2577024.4
2566546.8
2556069.2
2545591.3
2535113.3
2524635.2
2514156.8
2503678.4
2493199.7
2482720.9
2472241.9
2461762.8
2451283.5
2440804
2430324.4
2419844.6
2409364.6
2398884.5
2388404.2
2377923.8
2367443.1
2356962.4
2346481.4
2336000.3
2325519.1
2315037.6
2304556
2294074.3
2283592.4
2273110.3
2262628
2252145.6
2241663.1
2231180.3
2220697.4
2210214.4
2199731.1
2189247.7
2178764.2
2168280.5
2157796.6
2147312.5
2136828.3
2126344
2115859.4
2105374.7
2094889.9
2084404.8
2073919.6
2063434.3
2052948.8
2042463.1
2031977.2
2021491.2
2011005.1
2000518.7
1990032.2
1979545.6
1969058.7
1958571.7
1948084.6
1937597.3
1927109.8
1916622.1
1906134.3
1895646.4
1885158.2
1874669.9
1864181.5
1853692.8
1843204
1832715.1
1822226
1811736.7
1801247.2
1790757.6
1780267.8
1769777.9
1759287.8
1748797.5
1738307.1
1727816.5
1717325.7
1706834.8
1696343.7
1685852.5
1675361.1
1664869.5
1654377.7
1643885.8
1633393.8
1622901.5
1612409.1
1601916.6
1591423.8
1580930.9
1570437.9
1559944.7
1549451.3
1538957.7
1528464
1517970.2
1507476.1
1496981.9
1486487.5
1475993
1465498.3
1455003.5
1444508.4
1434013.2
1423517.9
1413022.4
1402526.7
1392030.9
1381534.8
1371038.7
1360542.3
1350045.8
1339549.2
1329052.3
1318555.3
1308058.2
1297560.9
1287063.4
1276565.7
1266067.9
1255569.9
1245071.8
1234573.5
1224075
1213576.4
1203077.6
1192578.6
1182079.5
1171580.2
1161080.7
1150581.1
1140081.3
1129581.3
1119081.2
1108580.9
1098080.5
1087579.9
1077079.1
1066578.2
1056077.1
1045575.8
1035074.4
1024572.8
1014071
1003569.1
993066.99
982564.74
972062.32
961559.73
951056.98
940554.07
930050.99
919547.75
909044.34
898540.77
888037.03
877533.13
867029.07
856524.84
846020.44
835515.88
825011.16
814506.27
804001.21
793496
782990.61
772485.06
761979.35
751473.47
740967.43
730461.22
719954.85
709448.31
698941.61
688434.74
677927.71
667420.51
656913.15
646405.62
635897.93
625390.07
614882.04
604373.86
593865.5
583356.98
572848.3
562339.44
551830.43
541321.24
530811.9
520302.38
509792.7
499282.86
488772.84
478262.67
467752.32
457241.81
446731.13
436220.29
425709.28
415198.1
404686.76
394175.25
383663.58
373151.73
362639.73
352127.55
341615.21
331102.7
320590.03
310077.2
299564.2
289051.03
278537.7
268024.22
257510.57
246996.76
236482.79
225968.67
215454.4
204939.98
194425.41
183910.7
173395.85
162880.87
152365.77
141850.54
131335.2
120819.76
110304.23
99788.622
89272.945
78757.217
68241.454
57725.651
47209.912
36694.865
26179.265
15650.601
5139.4799
20819797
20795563
20773084
20752632
20733088
20714346
20696439
20679338
20662993
20647355
20632370
20617984
20604141
20590789
20577876
20565356
20553182
20541314
20529714
20518348
20507186
20496199
20485363
20474657
20464062
20453560
20443137
20432781
20422479
20412224
20402005
20391817
20381653
20371507
20361377
20351257
20341145
20331037
20320933
20310830
20300727
20290622
20280515
20270405
20260291
20250173
20240051
20229924
20219793
20209657
20199517
20189372
20179223
20169069
20158911
20148750
20138584
20128415
20118243
20108067
20097888
20087707
20077523
20067336
20057147
20046956
20036762
20026567
20016370
20006172
19995971
19985770
19975567
19965363
19955158
19944952
19934745
19924537
19914328
19904118
19893908
19883697
19873485
19863273
19853060
19842847
19832633
19822419
19812205
19801990
19791775
19781559
19771343
19761127
19750910
19740694
19730477
19720259
19710042
19699824
19689606
19679388
19669170
19658951
19648732
19638513
19628294
19618075
19607856
19597636
19587416
19577196
19566976
19556756
19546535
19536314
19526094
19515873
19505651
19495430
19485209
19474987
19464765
19454543
19444321
19434099
19423877
19413654
19403431
19393209
19382986
19372762
19362539
19352316
19342092
19331868
19321644
19311420
19301196
19290972
19280747
19270523
19260298
19250073
19239848
19229623
19219397
19209172
19198946
19188720
19178494
19168268
19158042
19147815
19137589
19127362
19117135
19106908
19096681
19086453
19076226
19065998
19055770
19045542
19035314
19025086
19014858
19004629
18994400
18984171
18973942
18963713
18953484
18943254
18933025
18922795
18912565
18902335
18892105
18881874
18871644
18861413
18851182
18840951
18830720
18820489
18810258
18800026
18789794
18779562
18769330
18759098
18748866
18738633
18728401
18718168
18707935
18697702
18687469
18677235
18667002
18656768
18646534
18636300
18626066
18615832
18605597
18595363
18585128
18574893
18564658
18554423
18544188
18533952
18523717
18513481
18503245
18493009
18482772
18472536
18462299
18452063
18441826
18431589
18421352
18411114
18400877
18390639
18380402
18370164
18359926
18349687
18339449
18329211
18318972
18308733
18298494
18288255
18278016
18267776
18257537
18247297
18237057
18226817
18216577
18206337
18196096
18185855
18175615
18165374
18155133
18144891
18134650
18124408
18114167
18103925
18093683
18083441
18073198
18062956
18052713
18042471
18032228
18021985
18011742
18001498
17991255
17981011
17970767
17960523
17950279
17940035
17929790
17919546
17909301
17899056
17888811
17878566
17868321
17858075
17847830
17837584
17827338
17817092
17806846
17796599
17786353
17776106
17765859
17755612
17745365
17735118
17724870
17714623
17704375
17694127
17683879
17673631
17663383
17653134
17642885
17632637
17622388
17612139
17601889
17591640
17581390
17571141
17560891
17550641
17540391
17530140
17519890
17509639
17499388
17489137
17478886
17468635
17458384
17448132
17437881
17427629
17417377
17407125
17396872
17386620
17376367
17366114
17355862
17345609
17335355
17325102
17314848
17304595
17294341
17284087
17273833
17263579
17253324
17243070
17232815
17222560
17212305
17202050
17191795
17181539
17171283
17161028
17150772
17140516
17130259
17120003
17109746
17099490
17089233
17078976
17068719
17058461
17048204
17037946
17027689
17017431
17007173
16996914
16986656
16976397
16966139
16955880
16945621
16935362
16925103
16914843
16904584
16894324
16884064
16873804
16863544
16853283
16843023
16832762
16822501
16812240
16801979
16791718
16781457
16771195
16760933
16750672
16740409
16730147
16719885
16709623
16699360
16689097
16678834
16668571
16658308
16648044
16637781
16627517
16617253
16606989
16596725
16586461
16576196
16565932
16555667
16545402
16535137
16524872
16514607
16504341
16494075
16483809
16473544
16463277
16453011
16442745
16432478
16422211
16411944
16401677
16391410
16381143
16370875
16360608
16350340
16340072
16329804
16319535
16309267
16298998
16288730
16278461
16268192
16257923
16247653
16237384
16227114
16216844
16206574
16196304
16186034
16175764
16165493
16155222
16144952
16134681
16124409
16114138
16103867
16093595
16083323
16073051
16062779
16052507
16042235
16031962
16021689
16011416
16001143
15990870
15980597
15970324
15960050
15949776
15939502
15929228
15918954
15908680
15898405
15888130
15877856
15867581
15857305
15847030
15836755
15826479
15816203
15805927
15795651
15785375
15775099
15764822
15754546
15744269
15733992
15723715
15713437
15703160
15692882
15682605
15672327
15662049
15651770
15641492
15631214
15620935
15610656
15600377
15590098
15579819
15569539
15559260
15548980
15538700
15528420
15518140
15507860
15497579
15487298
15477018
15466737
15456456
15446174
15435893
15425611
15415330
15405048
15394766
15384484
15374201
15363919
15353636
15343353
15333070
15322787
15312504
15302221
15291937
15281653
15271369
15261085
15250801
15240517
15230232
15219948
15209663
15199378
15189093
15178808
15168522
15158237
15147951
15137665
15127379
15117093
15106807
15096520
15086234
15075947
15065660
15055373
15045086
15034798
15024511
15014223
15003935
14993647
14983359
14973071
14962782
14952493
14942205
14931916
14921627
14911337
14901048
14890758
14880469
14870179
14859889
14849599
14839308
14829018
14818727
14808437
14798146
14787855
14777563
14767272
14756980
14746689
14736397
14726105
14715813
14705520
14695228
14684935
14674642
14664350
14654056
14643763
14633470
14623176
14612883
14602589
14592295
14582001
14571706
14561412
14551117
14540822
14530527
14520232
14509937
14499642
14489346
14479051
14468755
14458459
14448163
14437866
14427570
14417273
14406976
14396679
14386382
14376085
14365788
14355490
14345192
14334895
14324597
14314298
14304000
14293702
14283403
14273104
14262805
14252506
14242207
14231908
14221608
14211308
14201009
14190709
14180408
14170108
14159808
14149507
14139206
14128905
14118604
14108303
14098001
14087700
14077398
14067096
14056794
14046492
14036190
14025887
14015585
14005282
13994979
13984676
13974373
13964069
13953766
13943462
13933158
13922854
13912550
13902246
13891941
13881636
13871332
13861027
13850722
13840416
13830111
13819805
13809500
13799194
13788888
13778582
13768275
13757969
13747662
13737355
13727048
13716741
13706434
13696127
13685819
13675511
13665203
13654895
13644587
13634279
13623970
13613662
13603353
13593044
13582735
13572426
13562116
13551807
13541497
13531187
13520877
13510567
13500256
13489946
13479635
13469324
13459013
13448702
13438391
13428079
13417768
13407456
13397144
13386832
13376520
13366208
13355895
13345582
13335270
13324957
13314643
13304330
13294017
13283703
13273389
13263075
13252761
13242447
13232133
13221818
13211504
13201189
13190874
13180559
13170243
13159928
13149612
13139296
13128980
13118664
13108348
13098032
13087715
13077399
13067082
13056765
13046447
13036130
13025813
13015495
13005177
12994859
12984541
12974223
12963905
12953586
12943267
12932948
12922629
12912310
12901991
12891671
12881352
12871032
12860712
12850392
12840072
12829751
12819431
12809110
12798789
12788468
12778147
12767825
12757504
12747182
12736860
12726538
12716216
12705894
12695571
12685249
12674926
12664603
12654280
12643957
12633634
12623310
12612986
12602663
12592339
12582014
12571690
12561366
12551041
12540716
12530391
12520066
12509741
12499416
12489090
12478764
12468438
12458112
12447786
12437460
12427133
12416807
12406480
12396153
12385826
12375499
12365171
12354844
12344516
12334188
12323860
12313532
12303204
12292875
12282546
12272218
12261889
12251559
12241230
12230901
12220571
12210241
12199911
12189581
12179251
12168921
12158590
12148260
12137929
12127598
12117267
12106935
12096604
12086272
12075940
12065609
12055276
12044944
12034612
12024279
12013947
12003614
11993281
11982948
11972614
11962281
11951947
11941613
11931279
11920945
11910611
11900277
11889942
11879607
11869272
11858937
11848602
11838267
11827931
11817596
11807260
11796924
11786588
11776251
11765915
11755578
11745241
11734905
11724567
11714230
11703893
11693555
11683218
11672880
11662542
11652204
11641865
11631527
11621188
11610849
11600510
11590171
11579832
11569493
11559153
11548813
11538473
11528133
11517793
11507453
11497112
11486772
11476431
11466090
11455749
11445408
11435066
11424724
11414383
11404041
11393699
11383356
11373014
11362672
11352329
11341986
11331643
11321300
11310957
11300613
11290269
11279926
11269582
11259238
11248893
11238549
11228204
11217860
11207515
11197170
11186824
11176479
11166134
11155788
11145442
11135096
11124750
11114404
11104057
11093711
11083364
11073017
11062670
11052323
11041975
11031628
11021280
11010932
11000584
10990236
10979888
10969539
10959191
10948842
10938493
10928144
10917794
10907445
10897095
10886746
10876396
10866046
10855696
10845345
10834995
10824644
10814293
10803942
10793591
10783240
10772888
10762537
10752185
10741833
10731481
10721129
10710776
10700424
10690071
10679718
10669365
10659012
10648659
10638305
10627951
10617598
10607244
10596889
10586535
10576181
10565826
10555471
10545116
10534761
10524406
10514051
10503695
10493340
10482984
10472628
10462272
10451915
10441559
10431202
10420845
10410488
10400131
10389774
10379417
10369059
10358701
10348343
10337985
10327627
10317269
10306910
10296552
10286193
10275834
10265475
10255115
10244756
10234396
10224036
10213676
10203316
10192956
10182596
10172235
10161874
10151513
10141152
10130791
10120430
10110068
10099707
10089345
10078983
10068621
10058258
10047896
10037533
10027171
10016808
10006445
9996081.4
9985718
9975354.5
9964990.8
9954626.9
9944262.9
9933898.7
9923534.3
9913169.8
9902805.2
9892440.4
9882075.4
9871710.3
9861345
9850979.5
9840613.9
9830248.2
9819882.3
9809516.2
9799150
9788783.6
9778417
9768050.3
9757683.5
9747316.5
9736949.3
9726581.9
9716214.5
9705846.8
9695479
9685111
9674742.9
9664374.6
9654006.2
9643637.6
9633268.9
9622900
9612530.9
9602161.7
9591792.3
9581422.7
9571053
9560683.2
9550313.2
9539943
9529572.7
9519202.2
9508831.5
9498460.7
9488089.8
9477718.7
9467347.4
9456976
9446604.4
9436232.6
9425860.7
9415488.7
9405116.4
9394744.1
9384371.5
9373998.8
9363626
9353253
9342879.8
9332506.5
9322133
9311759.3
9301385.5
9291011.6
9280637.5
9270263.2
9259888.8
9249514.2
9239139.4
9228764.5
9218389.5
9208014.2
9197638.9
9187263.3
9176887.6
9166511.8
9156135.8
9145759.6
9135383.3
9125006.8
9114630.1
9104253.3
9093876.4
9083499.3
9073122
9062744.6
9052367
9041989.2
9031611.3
9021233.2
9010855
9000476.6
8990098.1
8979719.4
8969340.5
8958961.5
8948582.4
8938203
8927823.5
8917443.9
8907064.1
8896684.1
8886304
8875923.7
8865543.3
8855162.7
8844781.9
8834401
8824019.9
8813638.7
8803257.3
8792875.8
8782494.1
8772112.2
8761730.2