/*--------------------------------*- C++ -*----------------------------------*\
  =========                 |
  \\      /  F ield         | OpenFOAM: The Open Source CFD Toolbox
   \\    /   O peration     | Website:  https://openfoam.org
    \\  /    A nd           | Version:  6
     \\/     M anipulation  |
\*---------------------------------------------------------------------------*/
FoamFile
{
    version     2.0;
    format      ascii;
    class       volVectorField;
    location    "10000";
    object      grad(p);
}
// * * * * * * * * * * * * * * * * * * * * * * * * * * * * * * * * * * * * * //

dimensions      [0 1 -2 0 0 0 0];

internalField   nonuniform List<vector> 
40000
(
(-249498.24 2.7555961e-13 -12770.16)
(-471420.37 0 -5610.2104)
(-425650.36 0 -8480.53)
(-399510.3 0 -9270.8112)
(-383500.29 0 -8931.0047)
(-367120.29 0 -8631.1868)
(-350840.27 0 -8301.349)
(-335360.26 2.7374529e-13 -7871.4759)
(-320820.24 0 -7401.5728)
(-307280.23 0 -6881.6344)
(-294790.21 0 -6351.6673)
(-283370.19 0 -5801.668)
(-273000.17 2.7278227e-13 -5271.6474)
(-263650.16 0 -4751.6037)
(-255280.14 2.7244751e-13 -4271.5484)
(-247840.12 2.7228825e-13 -3801.4731)
(-241240.11 -2.7213358e-13 -3371.3907)
(-235430.1 2.7198299e-13 -2981.3043)
(-230350.09 0 -2621.2123)
(-225910.07 2.7169204e-13 -2291.1169)
(-222050.06 2.7155083e-13 -1991.0204)
(-218720.06 0 -1730.9304)
(-215860.05 2.7127511e-13 -1500.8442)
(-213410.04 2.7113998e-13 -1290.7583)
(-211320.04 2.7100632e-13 -1100.6742)
(-209560.03 2.7087392e-13 -940.59963)
(-208060.03 2.7074256e-13 -790.52372)
(-206810.02 0 -670.46094)
(-205780.02 2.7048235e-13 -560.39928)
(-204910.01 2.7035323e-13 -460.3395)
(-204220.01 2.7022459e-13 -390.2976)
(-203660.01 2.7009636e-13 -310.24432)
(-203200.01 0 -250.20329)
(-202860.01 2.6984078e-13 -210.17602)
(-202590 2.6971331e-13 -150.12949)
(-202390 2.6958598e-13 -120.10659)
(-202250 2.6945875e-13 -80.073067)
(-202160 2.6933158e-13 -70.065687)
(-202120 0 -40.038537)
(-202090 2.6907732e-13 -20.01977)
(-202100 2.689502e-13 -10.010135)
(-202140 2.6882305e-13 0)
(-202190 2.6869586e-13 10.010636)
(-202260 0 20.021774)
(-202330 2.6844134e-13 30.033412)
(-202410 2.68314e-13 30.034164)
(-202490 2.6818658e-13 40.046554)
(-202580 2.6805912e-13 30.035667)
(-202680 2.6793157e-13 40.048559)
(-202760 0 40.049561)
(-202850 2.676763e-13 40.050564)
(-202940 2.6754856e-13 40.051566)
(-203030 2.6742076e-13 40.052569)
(-203110 2.6729288e-13 40.053572)
(-203190 0 30.040931)
(-203270 2.6703697e-13 40.055577)
(-203340 2.6690893e-13 30.042435)
(-203410 2.6678083e-13 30.043187)
(-203480 2.6665269e-13 30.043939)
(-203540 2.6652449e-13 30.044691)
(-203600 0 20.030296)
(-203660 2.6626796e-13 30.046196)
(-203700 2.6613963e-13 30.046948)
(-203750 2.6601126e-13 20.031801)
(-203800 2.6588285e-13 20.032302)
(-203850 2.6575441e-13 20.032804)
(-203890 0 20.033305)
(-203920 2.6549742e-13 20.033807)
(-203950 2.6536888e-13 20.034309)
(-203980 2.6524032e-13 20.034811)
(-204010 2.6511173e-13 10.017656)
(-204040 0 10.017907)
(-204070 2.6485447e-13 10.018158)
(-204090 2.6472581e-13 10.018409)
(-204110 2.6459712e-13 10.01866)
(-204130 2.6446842e-13 10.018911)
(-204150 2.643397e-13 10.019162)
(-204170 0 10.019413)
(-204190 2.6408219e-13 10.019664)
(-204200 2.6395341e-13 10.019915)
(-204210 2.6382462e-13 10.020166)
(-204220 2.6369581e-13 10.020417)
(-204240 0 0)
(-204250 2.6343815e-13 10.020919)
(-204250 2.633093e-13 0)
(-204270 2.6318044e-13 0)
(-204280 2.6305156e-13 0)
(-204290 2.6292267e-13 0)
(-204300 0 10.022174)
(-204300 2.6266486e-13 10.022425)
(-204300 2.6253594e-13 10.022676)
(-204310 2.6240701e-13 0)
(-204320 2.6227806e-13 0)
(-204330 0 0)
(-204340 2.6202014e-13 0)
(-204340 2.6189117e-13 10.023932)
(-204340 2.6176218e-13 10.024183)
(-204340 2.6163319e-13 0)
(-204350 2.6150419e-13 0)
(-204360 0 0)
(-204360 2.6124615e-13 0)
(-204360 2.6111712e-13 0)
(-204370 2.6098808e-13 0)
(-204380 2.6085902e-13 0)
(-204380 0 0)
(-204380 2.6060089e-13 0)
(-204380 2.6047181e-13 0)
(-204390 2.6034273e-13 0)
(-204390 2.6021364e-13 10.027199)
(-204390 2.6008453e-13 0)
(-204400 0 0)
(-204400 2.598263e-13 0)
(-204410 2.5969717e-13 0)
(-204410 2.5956803e-13 10.028456)
(-204410 2.5943888e-13 0)
(-204420 2.5930972e-13 0)
(-204420 0 10.02921)
(-204420 2.5905139e-13 10.029462)
(-204420 2.589222e-13 0)
(-204430 2.5879301e-13 0)
(-204430 2.5866381e-13 10.030216)
(-204430 0 0)
(-204440 2.5840539e-13 0)
(-204440 2.5827616e-13 0)
(-204440 2.5814693e-13 0)
(-204450 2.5801769e-13 0)
(-204450 2.5788844e-13 10.031725)
(-204450 0 0)
(-204460 2.5762991e-13 0)
(-204460 2.5750064e-13 10.03248)
(-204460 2.5737135e-13 10.032732)
(-204460 2.5724205e-13 0)
(-204460 0 0)
(-204470 2.5698345e-13 0)
(-204480 2.5685413e-13 0)
(-204480 2.567248e-13 0)
(-204480 2.5659546e-13 0)
(-204480 2.5646612e-13 0)
(-204480 0 0)
(-204490 2.5620741e-13 0)
(-204490 2.5607804e-13 0)
(-204490 2.5594867e-13 0)
(-204500 2.5581928e-13 0)
(-204500 0 0)
(-204510 2.5556048e-13 0)
(-204510 2.5543107e-13 10.036508)
(-204510 2.5530164e-13 0)
(-204510 2.5517222e-13 10.037011)
(-204510 2.5504278e-13 0)
(-204520 0 0)
(-204520 2.5478388e-13 0)
(-204530 2.5465442e-13 0)
(-204530 2.5452494e-13 10.038271)
(-204530 2.5439546e-13 0)
(-204530 0 10.038775)
(-204530 2.5413648e-13 0)
(-204540 2.5400698e-13 0)
(-204550 2.5387746e-13 0)
(-204550 2.5374794e-13 10.039783)
(-204540 2.5361841e-13 0)
(-204550 0 0)
(-204560 0 0)
(-204560 2.5322976e-13 0)
(-204560 0 0)
(-204560 2.5297062e-13 0)
(-204570 0 0)
(-204570 0 10.041799)
(-204570 2.5258186e-13 0)
(-204580 0 0)
(-204580 2.5232263e-13 0)
(-204580 2.52193e-13 0)
(-204580 0 0)
(-204590 2.5193374e-13 0)
(-204590 0 0)
(-204590 2.5167443e-13 0)
(-204600 2.5154476e-13 0)
(-204600 0 0)
(-204600 0 0)
(-204610 0 0)
(-204610 2.51026e-13 0)
(-204610 2.508963e-13 0)
(-204620 0 0)
(-204620 0 0)
(-204620 0 0)
(-204620 2.5037737e-13 0)
(-204630 2.5024762e-13 0)
(-204630 0 10.046843)
(-204630 2.4998809e-13 0)
(-204640 0 0)
(-204640 2.4972852e-13 0)
(-204640 2.4959873e-13 0)
(-204640 0 0)
(-204650 2.4933912e-13 0)
(-204650 0 0)
(-204650 2.4907947e-13 0)
(-204660 2.4894963e-13 0)
(-204660 0 0)
(-204660 2.4868993e-13 0)
(-204670 0 0)
(-204670 0 0)
(-204670 2.4830032e-13 0)
(-204680 0 0)
(-204680 2.4804053e-13 0)
(-204680 0 0)
(-204680 0 0)
(-204690 2.4765079e-13 0)
(-204690 0 0)
(-204690 2.4739092e-13 0)
(-204700 0 0)
(-204700 2.4713101e-13 0)
(-204700 0 0)
(-204710 0 0)
(-204710 2.4674109e-13 10.053409)
(-204710 0 0)
(-204710 0 10.053914)
(-204710 0 0)
(-204730 0 0)
(-204730 2.4609105e-13 10.054672)
(-204720 0 0)
(-204730 0 0)
(-204730 2.4570092e-13 0)
(-204730 0 0)
(-204740 2.454408e-13 0)
(-204740 0 0)
(-204750 0 0)
(-204750 2.4505054e-13 0)
(-204750 0 0)
(-204760 0 0)
(-204750 0 10.057453)
(-204760 0 0)
(-204770 2.4439995e-13 10.057959)
(-204760 0 0)
(-204770 0 0)
(-204770 0 10.058718)
(-204770 0 0)
(-204780 2.4374914e-13 0)
(-204780 0 0)
(-204780 2.4348875e-13 0)
(-204790 0 0)
(-204790 0 0)
(-204790 2.4309812e-13 0)
(-204800 0 0)
(-204800 2.4283764e-13 0)
(-204800 0 0)
(-204810 0 0)
(-204810 2.4244687e-13 10.061754)
(-204810 0 0)
(-204820 2.4218631e-13 0)
(-204810 0 10.062513)
(-204820 2.4192573e-13 0)
(-204830 2.4179542e-13 10.06302)
(-204820 0 0)
(-204830 2.4153478e-13 0)
(-204830 0 0)
(-204830 2.4127411e-13 0)
(-204840 2.4114376e-13 0)
(-204840 0 0)
(-204850 2.4088303e-13 0)
(-204850 0 0)
(-204850 0 0)
(-204850 0 0)
(-204850 0 0)
(-204860 2.4023107e-13 0)
(-204870 0 0)
(-204870 0 10.066565)
(-204860 0 0)
(-204870 0 0)
(-204880 2.3957888e-13 0)
(-204880 0 0)
(-204880 0 0)
(-204880 2.3918747e-13 0)
(-204890 0 0)
(-204890 2.3892648e-13 0)
(-204890 0 0)
(-204900 0 0)
(-204900 2.3853494e-13 0)
(-204900 0 0)
(-204900 2.3827388e-13 0)
(-204910 0 0)
(-204910 0 0)
(-204910 2.3788221e-13 0)
(-204920 0 0)
(-204920 0 0)
(-204920 0 0)
(-204930 0 0)
(-204930 2.3722925e-13 0)
(-204930 0 0)
(-204940 2.3696801e-13 0)
(-204940 0 0)
(-204940 0 0)
(-204940 2.3657608e-13 0)
(-204950 0 0)
(-204950 2.3631475e-13 0)
(-204950 0 0)
(-204960 0 0)
(-204960 2.359227e-13 0)
(-204960 0 0)
(-204970 2.3566129e-13 0)
(-204970 0 10.075186)
(-204970 2.3539984e-13 0)
(-204980 2.352691e-13 0)
(-204970 0 10.075947)
(-204980 2.3500761e-13 0)
(-204990 0 10.076455)
(-204980 2.3474607e-13 0)
(-204990 2.3461529e-13 0)
(-205000 0 0)
(-204990 2.343537e-13 10.077471)
(-204990 0 0)
(-205010 0 0)
(-205010 0 10.078232)
(-205000 0 0)
(-205010 2.3369959e-13 0)
(-205020 0 0)
(-205020 0 0)
(-205020 0 0)
(-205020 0 0)
(-205020 2.3304526e-13 0)
(-205030 0 0)
(-205040 0 0)
(-205030 0 10.080772)
(-205030 2.3252164e-13 0)
(-205050 -2.3239072e-13 0)
(-205050 0 10.081534)
(-205040 0 0)
(-205050 0 0)
(-205060 2.3186692e-13 0)
(-205060 -2.3173594e-13 0)
(-205060 0 10.082805)
(-205060 0 10.083059)
(-205060 0 0)
(-205070 0 0)
(-205070 0 0)
(-205070 0 0)
(-205080 0 0)
(-205080 0 0)
(-205090 0 0)
(-205090 -2.3042578e-13 10.085093)
(-205090 2.3029471e-13 0)
(-205090 0 10.085602)
(-205090 0 0)
(-205100 0 0)
(-205100 -2.2977037e-13 0)
(-205110 2.2963926e-13 0)
(-205110 0 10.086873)
(-205110 0 0)
(-205120 0 0)
(-205120 -2.2911474e-13 10.087636)
(-205120 0 10.087891)
(-205120 2.2885243e-13 10.088145)
(-205120 0 0)
(-205130 0 0)
(-205130 -2.284589e-13 0)
(-205130 0 0)
(-205140 2.2819651e-13 0)
(-205140 0 0)
(-205150 0 0)
(-205150 -2.2780284e-13 0)
(-205150 0 0)
(-205160 0 0)
(-205160 2.2740911e-13 10.090945)
(-205160 0 10.091199)
(-205160 -2.2714657e-13 10.091454)
(-205160 0 0)
(-205170 0 0)
(-205170 2.267527e-13 0)
(-205170 0 0)
(-205180 -2.2649008e-13 0)
(-205180 0 0)
(-205190 0 0)
(-205190 0 10.093491)
(-205190 2.2596473e-13 0)
(-205190 -2.2583337e-13 10.094)
(-205190 0 0)
(-205200 0 0)
(-205200 0 0)
(-205210 2.2530786e-13 0)
(-205210 -2.2517645e-13 0)
(-205210 0 0)
(-205220 0 0)
(-205220 0 0)
(-205220 0 0)
(-205220 0 0)
(-205220 0 0)
(-205230 0 0)
(-205240 0 0)
(-205240 0 0)
(-205240 0 10.097823)
(-205240 0 0)
(-205240 0 0)
(-205250 0 0)
(-205250 0 10.098842)
(-205250 -2.2320438e-13 0)
(-205260 2.2307284e-13 0)
(-205260 0 0)
(-205260 0 0)
(-205270 0 0)
(-205270 -2.2254658e-13 0)
(-205270 0 0)
(-205280 2.2228341e-13 0)
(-205280 0 0)
(-205280 0 0)
(-205280 -2.2188858e-13 0)
(-205290 0 0)
(-205290 2.2162531e-13 0)
(-205290 0 0)
(-205300 0 0)
(-205300 -2.2123036e-13 0)
(-205300 0 0)
(-205310 0 0)
(-205310 2.2083532e-13 10.103689)
(-205310 0 0)
(-205320 -2.2057191e-13 0)
(-205320 0 0)
(-205320 0 10.10471)
(-205320 2.2017674e-13 0)
(-205330 0 0)
(-205330 -2.1991326e-13 10.105476)
(-205330 0 0)
(-205340 0 0)
(-205340 0 0)
(-205340 2.1938617e-13 0)
(-205340 -2.1925438e-13 0)
(-205350 0 0)
(-205360 0 0)
(-205350 0 10.107519)
(-205350 2.1872713e-13 0)
(-205360 -2.1859529e-13 0)
(-205370 0 0)
(-205370 0 0)
(-205370 0 0)
(-205370 0 0)
(-205370 0 0)
(-205380 0 0)
(-205380 0 0)
(-205390 0 0)
(-205390 0 0)
(-205390 0 0)
(-205400 0 0)
(-205400 0 0)
(-205400 0 0)
(-205400 0 0)
(-205400 -2.166167e-13 0)
(-205410 2.1648473e-13 0)
(-205420 0 0)
(-205420 0 0)
(-205420 0 10.112885)
(-205420 -2.1595673e-13 10.113141)
(-205420 0 0)
(-205430 2.1569269e-13 0)
(-205430 0 10.113908)
(-205430 0 0)
(-205440 -2.1529655e-13 0)
(-205440 0 0)
(-205440 2.1503242e-13 0)
(-205450 0 0)
(-205450 0 10.115442)
(-205450 -2.1463615e-13 0)
(-205460 0 0)
(-205460 0 0)
(-205460 2.142398e-13 0)
(-205460 0 0)
(-205470 -2.1397553e-13 0)
(-205470 0 10.117233)
(-205470 0 0)
(-205480 2.1357905e-13 0)
(-205480 0 0)
(-205480 -2.1331469e-13 0)
(-205490 0 0)
(-205490 0 10.118769)
(-205490 0 0)
(-205500 2.1278586e-13 0)
(-205500 -2.1265364e-13 10.119537)
(-205500 0 10.119793)
(-205500 0 0)
(-205510 0 0)
(-205510 2.1212464e-13 10.120561)
(-205510 -2.1199236e-13 0)
(-205520 0 0)
(-205520 0 0)
(-205520 0 0)
(-205520 0 0)
(-205530 0 0)
(-205540 0 0)
(-205530 0 10.12261)
(-205530 0 0)
(-205550 0 0)
(-205550 0 10.123379)
(-205540 0 0)
(-205550 0 0)
(-205560 0 0)
(-205550 0 10.124404)
(-205550 -2.1000723e-13 0)
(-205570 2.0987482e-13 0)
(-205570 0 0)
(-205570 0 0)
(-205570 0 10.125685)
(-205570 -2.0934508e-13 0)
(-205580 0 0)
(-205580 2.0908016e-13 0)
(-205580 0 0)
(-205590 0 0)
(-205590 -2.0868271e-13 0)
(-205590 0 0)
(-205600 2.0841771e-13 0)
(-205600 0 0)
(-205600 0 0)
(-205610 -2.0802013e-13 0)
(-205610 0 10.128762)
(-205610 0 0)
(-205620 2.0762246e-13 0)
(-205610 0 10.129531)
(-205620 -2.0735733e-13 0)
(-205630 0 10.130044)
(-205620 0 0)
(-205630 2.0695953e-13 0)
(-205640 0 0)
(-205630 -2.0669429e-13 10.131071)
(-205630 0 0)
(-205650 0 0)
(-205650 0 10.131841)
(-205640 2.0616372e-13 0)
(-205650 -2.0603106e-13 0)
(-205660 0 0)
(-205660 0 0)
(-205660 0 0)
(-205660 2.055003e-13 0)
(-205670 -2.0536759e-13 0)
(-205670 0 10.133894)
(-205670 0 0)
(-205680 0 0)
(-205680 0 0)
(-205680 0 0)
(-205680 0 0)
(-205690 0 0)
(-205690 0 0)
(-205690 0 0)
(-205700 0 0)
(-205700 0 0)
(-205700 0 0)
(-205710 0 0)
(-205710 0 0)
(-205710 -2.0337588e-13 0)
(-205720 2.0324303e-13 0)
(-205720 0 0)
(-205720 0 0)
(-205730 0 0)
(-205730 -2.0271153e-13 10.138774)
(-205730 2.0257864e-13 0)
(-205730 0 10.139288)
(-205730 0 0)
(-205740 0 0)
(-205750 -2.0204698e-13 0)
(-205750 0 10.140317)
(-205750 2.0178108e-13 0)
(-205750 0 10.140831)
(-205750 0 0)
(-205760 -2.0138219e-13 0)
(-205760 0 0)
(-205770 0 0)
(-205770 2.0098322e-13 10.142116)
(-205770 0 0)
(-205780 -2.0071718e-13 0)
(-205770 0 10.142888)
(-205780 0 0)
(-205790 2.0031808e-13 10.143402)
(-205780 0 0)
(-205790 -2.0005197e-13 0)
(-205790 0 0)
(-205790 0 0)
(-205800 0 0)
(-205800 1.9951963e-13 0)
(-205810 -1.9938653e-13 0)
(-205810 0 0)
(-205810 0 0)
(-205820 0 0)
(-205820 1.9885401e-13 10.146233)
(-205820 -1.9872086e-13 10.14649)
(-205820 0 10.146747)
(-205820 0 0)
(-205830 0 0)
(-205840 0 0)
(-205830 0 10.147777)
(-205830 0 0)
(-205850 0 0)
(-205850 0 10.148549)
(-205840 0 0)
(-205850 0 0)
(-205860 0 0)
(-205860 0 0)
(-205860 0 10.149837)
(-205860 0 0)
(-205860 -1.9672254e-13 0)
(-205870 1.9658926e-13 0)
(-205880 0 0)
(-205870 0 10.151125)
(-205870 0 0)
(-205890 -1.96056e-13 0)
(-205890 1.9592266e-13 10.151898)
(-205880 0 0)
(-205890 0 0)
(-205900 0 0)
(-205900 -1.9538923e-13 0)
(-205900 0 0)
(-205900 1.9512246e-13 0)
(-205900 0 0)
(-205910 0 0)
(-205920 -1.9472224e-13 0)
(-205910 0 10.154475)
(-205910 0 0)
(-205930 1.9432195e-13 0)
(-205930 0 10.155248)
(-205920 -1.9405503e-13 0)
(-205930 0 0)
(-205940 0 0)
(-205940 1.936546e-13 0)
(-205940 0 0)
(-205940 -1.933876e-13 0)
(-205940 0 0)
(-205950 0 0)
(-205960 0 0)
(-205960 1.928535e-13 0)
(-205960 -1.9271995e-13 10.158085)
(-205960 0 10.158343)
(-205960 0 0)
(-205960 0 0)
(-205970 1.9218568e-13 0)
(-205980 -1.9205208e-13 0)
(-205980 0 0)
(-205980 0 0)
(-205980 0 0)
(-205990 0 0)
(-205990 0 10.160666)
(-205990 0 0)
(-206000 0 0)
(-206000 0 10.16144)
(-206000 0 10.161698)
(-206000 0 0)
(-206010 0 0)
(-206010 0 10.162473)
(-206010 -1.9031458e-13 0)
(-206020 -1.9018086e-13 5.9156381e-08)
(-206020 -1.9004713e-13 0)
(-206020 0 0)
(-206030 -1.8977966e-13 0)
(-206030 -1.896459e-13 0)
(-206030 -1.8951215e-13 5.9163897e-08)
(-206040 -1.8937837e-13 0)
(-206040 0 0)
(-206040 -1.8911081e-13 0)
(-206040 -1.8897701e-13 0)
(-206050 -1.8884321e-13 5.9171415e-08)
(-206050 -1.8870939e-13 0)
(-206050 -1.8857558e-13 0)
(-206060 0 0)
(-206060 -1.883079e-13 0)
(-206060 -1.8817405e-13 5.9178935e-08)
(-206070 -1.880402e-13 0)
(-206070 -1.8790632e-13 0)
(-206070 0 0)
(-206080 -1.8763856e-13 0)
(-206080 -1.8750467e-13 5.9186457e-08)
(-206080 -1.8737077e-13 0)
(-206090 -1.8723686e-13 0)
(-206090 -1.8710293e-13 10.168931)
(-206090 0 0)
(-206090 -1.8683506e-13 0)
(-206090 -1.8670113e-13 0)
(-206110 -1.8656717e-13 0)
(-206110 -1.864332e-13 10.170224)
(-206100 -1.8629922e-13 0)
(-206110 0 5.9201506e-08)
(-206110 -1.8603125e-13 0)
(-206110 -1.8589726e-13 0)
(-206120 -1.8576324e-13 0)
(-206130 -1.8562923e-13 0)
(-206130 0 10.172035)
(-206120 -1.8536116e-13 0)
(-206130 -1.8522712e-13 0)
(-206140 -1.8509306e-13 0)
(-206140 -1.8495899e-13 0)
(-206140 -1.8482492e-13 5.9216563e-08)
(-206140 0 0)
(-206150 -1.8455676e-13 0)
(-206150 -1.8442266e-13 10.174104)
(-206150 -1.8428855e-13 0)
(-206160 -1.8415443e-13 0)
(-206160 0 0)
(-206160 -1.8388617e-13 0)
(-206160 -1.8375203e-13 0)
(-206170 -1.8361788e-13 0)
(-206170 -1.8348372e-13 5.9231628e-08)
(-206170 -1.8334956e-13 0)
(-206180 0 0)
(-206180 -1.8308119e-13 0)
(-206190 -1.8294699e-13 0)
(-206190 -1.8281278e-13 10.177211)
(-206190 -1.8267857e-13 0)
(-206190 0 10.177729)
(-206190 -1.8241012e-13 0)
(-206200 -1.8227588e-13 0)
(-206210 -1.8214163e-13 5.92467e-08)
(-206210 -1.8200736e-13 10.178765)
(-206200 -1.8187309e-13 0)
(-206210 0 0)
(-206220 -1.8160453e-13 0)
(-206220 -1.8147024e-13 5.9254239e-08)
(-206220 -1.8133593e-13 0)
(-206220 -1.8120162e-13 0)
(-206230 0 0)
(-206230 -1.8093297e-13 0)
(-206230 -1.8079864e-13 5.926178e-08)
(-206240 -1.8066429e-13 0)
(-206240 -1.8052993e-13 0)
(-206240 -1.8039556e-13 0)
(-206250 0 0)
(-206250 -1.801268e-13 10.182392)
(-206250 -1.7999241e-13 0)
(-206260 -1.7985801e-13 0)
(-206260 -1.797236e-13 10.18317)
(-206260 -1.7958918e-13 10.183429)
(-206260 0 5.9276867e-08)
(-206260 -1.7932031e-13 0)
(-206270 -1.7918587e-13 0)
(-206280 -1.7905141e-13 0)
(-206280 -1.7891695e-13 0)
(-206280 0 5.9284414e-08)
(-206280 -1.7864799e-13 0)
(-206280 -1.785135e-13 0)
(-206290 -1.7837901e-13 0)
(-206300 -1.7824449e-13 0)
(-206290 -1.7810998e-13 10.186282)
(-206290 0 0)
(-206310 -1.7784092e-13 0)
(-206310 -1.7770637e-13 10.18706)
(-206300 -1.7757182e-13 0)
(-206310 -1.7743726e-13 5.9299513e-08)
(-206320 0 0)
(-206320 -1.771681e-13 0)
(-206320 -1.7703351e-13 0)
(-206320 -1.7689891e-13 0)
(-206320 -1.7676431e-13 5.9307066e-08)
(-206330 -1.766297e-13 0)
(-206340 0 0)
(-206340 -1.7636044e-13 10.189655)
(-206340 -1.7622579e-13 10.189915)
(-206340 -1.7609114e-13 10.190174)
(-206340 -1.7595647e-13 0)
(-206350 0 0)
(-206350 -1.7568713e-13 10.190953)
(-206350 -1.7555244e-13 0)
(-206360 -1.7541775e-13 2.9661088e-08)
(-206360 -1.7528304e-13 0)
(-206360 -1.7514833e-13 0)
(-206370 0 0)
(-206370 -1.7487887e-13 10.192511)
(-206370 -1.7474413e-13 2.9664867e-08)
(-206380 -1.7460938e-13 0)
(-206380 -1.7447462e-13 0)
(-206380 0 0)
(-206380 -1.7420507e-13 0)
(-206390 -1.7407029e-13 2.9668647e-08)
(-206390 -1.7393549e-13 0)
(-206390 -1.7380069e-13 0)
(-206400 -1.7366588e-13 0)
(-206400 0 0)
(-206410 -1.7339623e-13 5.9344857e-08)
(-206410 -1.7326138e-13 10.195629)
(-206410 -1.7312653e-13 0)
(-206410 -1.7299168e-13 10.196148)
(-206410 0 0)
(-206420 -1.7272194e-13 2.967621e-08)
(-206420 -1.7258705e-13 0)
(-206430 -1.7245216e-13 0)
(-206430 -1.7231725e-13 0)
(-206430 -1.7218234e-13 0)
(-206440 0 5.9359987e-08)
(-206440 -1.7191249e-13 0)
(-206440 -1.7177755e-13 0)
(-206440 -1.716426e-13 0)
(-206450 -1.7150765e-13 0)
(-206450 -1.7137268e-13 5.9367555e-08)
(-206450 0 0)
(-206460 -1.7110272e-13 0)
(-206460 -1.7096773e-13 0)
(-206460 -1.7083273e-13 0)
(-206470 -1.7069772e-13 5.9375124e-08)
(-206470 0 10.200829)
(-206470 -1.7042767e-13 0)
(-206480 -1.7029263e-13 0)
(-206480 -1.7015759e-13 10.201609)
(-206480 -1.7002253e-13 10.20187)
(-206480 -1.6988746e-13 0)
(-206490 0 0)
(-206490 -1.6961731e-13 10.20265)
(-206490 -1.6948222e-13 0)
(-206500 -1.6934712e-13 5.939027e-08)
(-206500 -1.6921201e-13 0)
(-206500 0 0)
(-206510 -1.6894177e-13 0)
(-206510 -1.6880663e-13 10.204212)
(-206510 -1.6867148e-13 5.9397845e-08)
(-206520 -1.6853633e-13 0)
(-206520 -1.6840116e-13 0)
(-206520 0 0)
(-206520 -1.6813081e-13 0)
(-206530 -1.6799562e-13 5.9405423e-08)
(-206530 -1.6786042e-13 0)
(-206530 -1.6772522e-13 0)
(-206540 0 0)
(-206540 -1.6745477e-13 0)
(-206540 -1.6731954e-13 2.9706501e-08)
(-206550 -1.671843e-13 0)
(-206550 -1.6704904e-13 0)
(-206550 -1.6691378e-13 0)
(-206560 0 0)
(-206560 -1.6664322e-13 5.9420584e-08)
(-206560 -1.6650793e-13 0)
(-206570 -1.6637264e-13 0)
(-206570 -1.6623733e-13 10.20916)
(-206570 0 0)
(-206580 -1.6596668e-13 5.9428167e-08)
(-206580 -1.6583135e-13 10.209942)
(-206580 -1.6569601e-13 10.210203)
(-206580 -1.6556065e-13 0)
(-206580 -1.6542529e-13 0)
(-206590 0 2.9717876e-08)
(-206600 -1.6515455e-13 0)
(-206600 -1.6501915e-13 0)
(-206600 -1.6488375e-13 0)
(-206600 -1.6474835e-13 0)
(-206600 -1.6461294e-13 2.972167e-08)
(-206610 0 0)
(-206620 -1.6434208e-13 0)
(-206610 -1.6420664e-13 10.21307)
(-206610 -1.6407119e-13 0)
(-206630 -1.6393573e-13 2.9725464e-08)
(-206630 0 10.213853)
(-206620 -1.6366477e-13 0)
(-206630 -1.6352929e-13 0)
(-206640 -1.6339379e-13 0)
(-206640 -1.6325828e-13 2.972926e-08)
(-206640 -1.6312277e-13 10.215157)
(-206640 0 0)
(-206640 -1.6285171e-13 0)
(-206650 -1.6271618e-13 0)
(-206660 -1.6258062e-13 2.9733056e-08)
(-206650 -1.6244506e-13 10.216461)
(-206650 0 0)
(-206670 -1.6217392e-13 0)
(-206670 -1.6203833e-13 10.217244)
(-206660 -1.6190273e-13 5.9473707e-08)
(-206670 -1.6176713e-13 0)
(-206680 -1.6163151e-13 5.9476746e-08)
(-206680 0 0)
(-206680 -1.6136026e-13 0)
(-206680 -1.6122462e-13 2.9740652e-08)
(-206690 -1.6108897e-13 0)
(-206690 -1.6095331e-13 10.219332)
(-206690 0 0)
(-206700 -1.6068196e-13 0)
(-206700 -1.6054627e-13 5.9488903e-08)
(-206700 -1.6041058e-13 0)
(-206700 -1.6027488e-13 2.9745972e-08)
(-206710 0 0)
(-206720 0 0)
(-206710 -1.5986771e-13 10.221422)
(-206710 -1.5973197e-13 0)
(-206730 -1.5959622e-13 2.9749772e-08)
(-206730 0 10.222205)
(-206720 0 0)
(-206730 -1.5918892e-13 2.9752053e-08)
(-206740 -1.5905313e-13 0)
(-206740 -1.5891733e-13 2.9753574e-08)
(-206740 0 10.223512)
(-206740 -1.5864571e-13 0)
(-206740 0 2.9755856e-08)
(-206750 -1.5837407e-13 0)
(-206760 -1.5823822e-13 2.9757377e-08)
(-206750 0 10.224818)
(-206750 -1.5796652e-13 0)
(-206770 0 5.9519318e-08)
(-206770 -1.5769477e-13 10.225602)
(-206760 -1.5755888e-13 5.9522361e-08)
(-206770 0 0)
(-206780 -1.5728709e-13 0)
(-206780 -1.5715117e-13 2.9763463e-08)
(-206780 0 0)
(-206780 -1.5687932e-13 2.9764985e-08)
(-206790 0 0)
(-206790 -1.5660743e-13 10.227694)
(-206790 -1.5647147e-13 5.9534537e-08)
(-206800 -1.563355e-13 0)
(-206800 0 5.9537582e-08)
(-206800 0 0)
(-206800 -1.5592755e-13 0)
(-206810 -1.5579155e-13 5.9542149e-08)
(-206810 -1.5565553e-13 0)
(-206810 0 2.9772597e-08)
(-206820 0 0)
(-206820 -1.5524745e-13 0)
(-206830 -1.551114e-13 2.9774882e-08)
(-206830 -1.5497534e-13 10.230833)
(-206830 -1.5483927e-13 2.9776405e-08)
(-206830 0 0)
(-206830 -1.5456711e-13 0)
(-206840 -1.5443102e-13 2.977869e-08)
(-206850 -1.5429492e-13 0)
(-206850 -1.5415879e-13 2.9780214e-08)
(-206850 0 0)
(-206850 -1.5388655e-13 10.232927)
(-206850 -1.5375041e-13 5.9564998e-08)
(-206860 -1.5361426e-13 0)
(-206860 -1.534781e-13 5.9568046e-08)
(-206870 0 0)
(-206870 0 10.234236)
(-206870 -1.5306957e-13 2.9786309e-08)
(-206880 -1.5293338e-13 0)
(-206870 -1.5279718e-13 10.235022)
(-206880 0 0)
(-206890 0 10.235545)
(-206880 -1.5238851e-13 5.9580241e-08)
(-206890 -1.5225228e-13 0)
(-206900 -1.5211602e-13 2.9791645e-08)
(-206890 0 10.236593)
(-206890 -1.5184351e-13 0)
(-206910 0 2.9793932e-08)
(-206910 -1.5157093e-13 0)
(-206910 -1.5143464e-13 2.9795458e-08)
(-206910 0 10.237903)
(-206910 -1.5116203e-13 0)
(-206920 0 2.9797745e-08)
(-206920 -1.5088938e-13 0)
(-206920 -1.5075304e-13 2.9799271e-08)
(-206930 0 0)
(-206930 -1.5048033e-13 0)
(-206930 -1.5034397e-13 2.9801559e-08)
(-206940 0 0)
(-206940 -1.5007121e-13 2.9803085e-08)
(-206940 0 0)
(-206950 -1.4979841e-13 0)
(-206950 -1.4966199e-13 2.9805374e-08)
(-206950 -1.4952558e-13 0)
(-206960 0 5.9613801e-08)
(-206960 0 0)
(-206960 -1.4911625e-13 0)
(-206960 -1.489798e-13 2.980919e-08)
(-206970 -1.4884333e-13 0)
(-206980 0 2.9810717e-08)
(-206970 0 10.243147)
(-206970 -1.4843388e-13 0)
(-206980 -1.4829737e-13 2.9813007e-08)
(-206990 -1.4816086e-13 0)
(-206990 -1.4802433e-13 5.9629069e-08)
(-206990 0 0)
(-206990 -1.4775126e-13 0)
(-206990 -1.4761472e-13 5.9633651e-08)
(-207000 -1.4747816e-13 0)
(-207010 -1.4734159e-13 2.9818353e-08)
(-207010 0 10.24577)
(-207000 -1.4706843e-13 0)
(-207010 -1.4693184e-13 2.9820644e-08)
(-207020 -1.4679523e-13 0)
(-207020 -1.4665862e-13 2.9822172e-08)
(-207020 0 0)
(-207020 0 0)
(-207030 -1.4624873e-13 2.9824464e-08)
(-207040 -1.4611207e-13 0)
(-207030 -1.4597541e-13 10.248133)
(-207030 0 0)
(-207040 0 0)
(-207050 -1.4556539e-13 2.9828285e-08)
(-207050 -1.4542869e-13 10.249183)
(-207050 -1.4529198e-13 2.9829814e-08)
(-207050 0 10.249709)
(-207050 -1.4501855e-13 0)
(-207060 0 2.9832107e-08)
(-207060 -1.4474508e-13 0)
(-207070 -1.4460833e-13 2.9833636e-08)
(-207070 0 10.251022)
(-207070 -1.443348e-13 0)
(-207080 0 2.983593e-08)
(-207080 -1.4406124e-13 10.25181)
(-207080 -1.4392444e-13 10.252073)
(-207080 0 0)
(-207080 -1.4365082e-13 0)
(-207090 -1.43514e-13 2.9839753e-08)
(-207100 0 0)
(-207100 -1.4324032e-13 2.9841283e-08)
(-207100 0 0)
(-207100 -1.4296661e-13 0)
(-207100 -1.4282975e-13 2.9843578e-08)
(-207110 -1.4269287e-13 0)
(-207120 0 5.9690217e-08)
(-207110 0 10.254964)
(-207110 -1.4228219e-13 0)
(-207130 -1.4214527e-13 5.9694808e-08)
(-207130 -1.4200834e-13 10.255753)
(-207120 0 2.9848934e-08)
(-207130 0 0)
(-207140 -1.4159752e-13 0)
(-207140 -1.4146055e-13 2.9851231e-08)
(-207140 -1.4132358e-13 0)
(-207140 -1.4118661e-13 5.9705523e-08)
(-207150 0 0)
(-207150 -1.4091262e-13 10.257857)
(-207150 -1.4077562e-13 2.9855058e-08)
(-207160 -1.406386e-13 0)
(-207160 -1.4050158e-13 2.985659e-08)
(-207160 0 0)
(-207160 -1.402275e-13 0)
(-207170 -1.4009046e-13 2.9858887e-08)
(-207180 -1.3995339e-13 0)
(-207170 -1.3981632e-13 10.259962)
(-207170 0 0)
(-207190 0 0)
(-207190 -1.3940505e-13 10.260751)
(-207180 -1.3926795e-13 0)
(-207190 -1.3913084e-13 2.9864249e-08)
(-207200 0 0)
(-207200 0 0)
(-207200 -1.3871942e-13 2.9866547e-08)
(-207200 -1.3858227e-13 0)
(-207210 -1.3844511e-13 2.986808e-08)
(-207210 0 10.262857)
(-207210 -1.3817076e-13 0)
(-207220 0 2.9870379e-08)
(-207220 -1.3789637e-13 0)
(-207220 -1.3775916e-13 2.9871912e-08)
(-207220 0 0)
(-207230 -1.3748473e-13 0)
(-207230 0 2.9874212e-08)
(-207230 -1.3721025e-13 0)
(-207240 -1.3707299e-13 2.9875745e-08)
(-207240 0 0)
(-207250 -1.3679846e-13 0)
(-207250 -1.3666117e-13 2.9878045e-08)
(-207250 0 0)
(-207250 -1.3638658e-13 2.9879579e-08)
(-207250 0 0)
(-207270 -1.3611196e-13 0)
(-207267 -1.3597463e-13 10.267336)
(-207261 0 1.0267599)
(-207270 -1.3569995e-13 1.0267863)
(-207273 0 2.0536253)
(-207276 -1.3542523e-13 2.053678)
(-207279 -1.3528786e-13 2.0537308)
(-207282 -1.3515048e-13 2.0537835)
(-207285 0 2.0538362)
(-207288 0 1.0269444)
(-207292 -1.3473827e-13 1.0269708)
(-207295 -1.3460085e-13 2.0539944)
(-207298 -1.3446343e-13 2.0540472)
(-207301 -1.3432599e-13 2.0540999)
(-207304 0 2.0541526)
(-207307 -1.3405109e-13 2.0542053)
(-207310 -1.3391362e-13 1.027129)
(-207314 -1.3377615e-13 1.0271554)
(-207317 -1.3363866e-13 2.0543636)
(-207320 0 2.0544164)
(-207323 -1.3336367e-13 2.0544691)
(-207326 -1.3322616e-13 2.0545219)
(-207329 -1.3308864e-13 2.0545746)
(-207332 -1.3295111e-13 1.0273137)
(-207336 0 1.0273401)
(-207339 0 2.054733)
(-207342 -1.3253847e-13 2.0547858)
(-207345 -1.324009e-13 2.0548385)
(-207348 -1.3226332e-13 1.0274457)
(-207352 0 2.0549441)
(-207355 0 2.0549968)
(-207357 -1.3185054e-13 2.0550497)
(-207360 -1.3171293e-13 1.0275512)
(-207364 -1.3157531e-13 1.0275777)
(-207368 0 1.027604)
(-207371 -1.3130004e-13 2.0552608)
(-207373 0 2.0553137)
(-207376 -1.3102473e-13 2.0553664)
(-207380 -1.3088706e-13 2.0554192)
(-207383 0 2.0554721)
(-207386 -1.306117e-13 2.0555249)
(-207389 0 2.0555777)
(-207392 -1.303363e-13 1.0278152)
(-207396 -1.3019859e-13 1.0278417)
(-207399 0 2.0557362)
(-207402 -1.2992313e-13 2.055789)
(-207405 -1.2978539e-13 2.0558418)
(-207408 0 2.0558946)
(-207411 -1.2950988e-13 2.0559475)
(-207414 0 1.0280001)
(-207418 -1.2923433e-13 1.0280265)
(-207421 -1.2909654e-13 2.056106)
(-207424 0 2.0561588)
(-207427 -1.2882094e-13 2.0562117)
(-207430 0 2.0562645)
(-207433 -1.285453e-13 2.0563174)
(-207436 -1.2840747e-13 1.0281851)
(-207440 -1.2826962e-13 1.0282116)
(-207443 0 2.056476)
(-207446 0 1.0282644)
(-207449 -1.2785604e-13 2.0565817)
(-207452 -1.2771816e-13 1.0283173)
(-207456 -1.2758027e-13 1.0283437)
(-207459 -1.2744237e-13 2.0567403)
(-207462 0 2.0567932)
(-207465 -1.2716655e-13 2.0568461)
(-207468 -1.2702862e-13 2.056899)
(-207471 -1.2689069e-13 2.0569518)
(-207474 -1.2675274e-13 1.0285024)
(-207478 0 1.0285288)
(-207481 -1.2647683e-13 2.0571105)
(-207484 -1.2633885e-13 2.0571635)
(-207487 -1.2620087e-13 2.0572163)
(-207490 -1.2606288e-13 2.0572693)
(-207493 0 2.0573221)
(-207496 0 1.0286875)
(-207500 -1.2564885e-13 1.028714)
(-207503 -1.2551083e-13 2.0574808)
(-207506 -1.2537279e-13 1.0287669)
(-207509 0 2.0575867)
(-207512 0 1.0288198)
(-207516 -1.2495862e-13 1.0288463)
(-207519 -1.2482055e-13 2.0577455)
(-207522 -1.2468247e-13 2.0577984)
(-207525 0 2.0578514)
(-207528 -1.2440627e-13 2.0579043)
(-207531 0 2.0579572)
(-207534 -1.2413004e-13 1.0290051)
(-207538 -1.2399191e-13 1.0290316)
(-207541 0 2.058116)
(-207544 -1.2371562e-13 2.058169)
(-207547 0 2.058222)
(-207550 -1.234393e-13 2.0582749)
(-207553 -1.2330112e-13 2.0583279)
(-207557 0 1.0291904)
(-207560 -1.2302474e-13 2.0584338)
(-207562 -1.2288654e-13 1.0292434)
(-207566 0 1.0292699)
(-207570 -1.2261011e-13 1.0292964)
(-207573 0 2.0586457)
(-207575 -1.2233363e-13 2.0586987)
(-207578 -1.2219538e-13 1.0293758)
(-207582 0 1.0294023)
(-207585 -1.2191886e-13 2.0588577)
(-207588 0 1.0294553)
(-207592 -1.2164229e-13 1.0294817)
(-207595 -1.2150399e-13 2.0590166)
(-207597 -1.2136569e-13 2.0590696)
(-207601 0 1.0295613)
(-207604 0 2.0591756)
(-207607 -1.2095072e-13 1.0296142)
(-207611 -1.2081237e-13 2.0592816)
(-207613 -1.2067402e-13 2.0593346)
(-207616 0 1.0296938)
(-207620 0 1.0297203)
(-207623 -1.2025891e-13 1.0297468)
(-207626 -1.2012052e-13 1.0297733)
(-207630 -1.1998212e-13 1.0297999)
(-207633 -1.1984371e-13 2.0596528)
(-207635 0 2.0597057)
(-207639 -1.1956687e-13 1.0298794)
(-207642 -1.1942844e-13 2.0598118)
(-207645 -1.1928999e-13 1.0299324)
(-207649 -1.1915154e-13 2.0599179)
(-207651 0 2.0599709)
(-207654 0 1.030012)
(-207658 -1.1873612e-13 1.0300385)
(-207661 -1.1859763e-13 1.030065)
(-207664 -1.1845913e-13 1.0300915)
(-207668 0 1.0301181)
(-207671 0 2.0602892)
(-207673 -1.1804357e-13 2.0603423)
(-207677 -1.1790503e-13 1.0301977)
(-207680 -1.1776648e-13 2.0604484)
(-207683 0 1.0302507)
(-207687 -1.1748936e-13 2.0605546)
(-207689 0 2.0606077)
(-207692 -1.172122e-13 1.0303303)