/*--------------------------------*- C++ -*----------------------------------*\
  =========                 |
  \\      /  F ield         | OpenFOAM: The Open Source CFD Toolbox
   \\    /   O peration     | Website:  https://openfoam.org
    \\  /    A nd           | Version:  6
     \\/     M anipulation  |
\*---------------------------------------------------------------------------*/
FoamFile
{
    version     2.0;
    format      ascii;
    class       volVectorField;
    location    "10000";
    object      U;
}
// * * * * * * * * * * * * * * * * * * * * * * * * * * * * * * * * * * * * * //

dimensions      [0 1 -1 0 0 0 0];

internalField   nonuniform List<vector> 
40000
(
(1.4979901 -9.393919e-22 0.0010247457)
(1.4950834 0 0.0027830814)
(1.4878673 0 0.004361512)
(1.4776391 0 0.0057057551)
(1.465003 0 0.0068135244)
(1.4503884 0 0.0076969803)
(1.4342258 0 0.0083694634)
(1.4169245 -1.0996042e-21 0.0088475564)
(1.3988552 0 0.0091508692)
(1.3803466 0 0.0093005952)
(1.3616841 0 0.0093183242)
(1.3431095 0 0.009225155)
(1.3248236 -1.0955597e-21 0.0090410345)
(1.3069885 0 0.0087843066)
(1.2897315 -1.0941448e-21 0.0084714472)
(1.2731487 -1.09347e-21 0.0081169506)
(1.2573097 1.0928138e-21 0.0077333309)
(1.2422608 -1.0921739e-21 0.0073312041)
(1.228029 0 0.0069194247)
(1.2146255 -1.0909354e-21 0.0065052522)
(1.2020482 -1.0903333e-21 0.006094531)
(1.1902851 0 0.0056918721)
(1.179316 -1.0891561e-21 0.0053008272)
(1.1691144 -1.0885786e-21 0.0049240503)
(1.1596498 -1.088007e-21 0.004563444)
(1.1508881 -1.0874404e-21 0.0042202898)
(1.1427936 -1.0868781e-21 0.0038953611)
(1.1353293 0 0.0035890215)
(1.1284579 -1.0857636e-21 0.0033013078)
(1.1221423 -1.0852104e-21 0.0030320007)
(1.1163462 -1.0846591e-21 0.0027806836)
(1.1110342 -1.0841095e-21 0.0025467915)
(1.106172 0 0.0023296508)
(1.101727 -1.083014e-21 0.0021285129)
(1.097668 -1.0824675e-21 0.0019425801)
(1.0939656 -1.0819216e-21 0.0017710275)
(1.0905917 -1.0813762e-21 0.0016130195)
(1.0875203 -1.0808311e-21 0.0014677237)
(1.0847268 0 0.0013343209)
(1.0821882 -1.0797412e-21 0.0012120128)
(1.0798832 -1.0791964e-21 0.0011000284)
(1.0777919 -1.0786514e-21 0.00099762782)
(1.075896 -1.0781064e-21 0.00090410519)
(1.0741783 0 0.00081879053)
(1.0726232 -1.0770158e-21 0.00074105067)
(1.0712162 -1.0764702e-21 0.00067028945)
(1.0699438 -1.0759244e-21 0.00060594754)
(1.0687938 -1.0753783e-21 0.00054750163)
(1.067755 -1.0748321e-21 0.00049446353)
(1.066817 0 0.00044637888)
(1.0659703 -1.0737388e-21 0.00040282578)
(1.0652064 -1.0731918e-21 0.00036341326)
(1.0645172 -1.0726446e-21 0.00032777969)
(1.0638957 -1.0720972e-21 0.00029559123)
(1.0633352 0 0.00026654014)
(1.0628298 -1.0710017e-21 0.0002403432)
(1.062374 -1.0704537e-21 0.00021674015)
(1.0619629 -1.0699055e-21 0.00019549216)
(1.0615921 -1.0693571e-21 0.00017638033)
(1.0612574 -1.0688085e-21 0.00015920432)
(1.0609553 0 0.00014378094)
(1.0606823 -1.067711e-21 0.00012994294)
(1.0604354 -1.067162e-21 0.00011753774)
(1.0602121 -1.0666129e-21 0.00010642632)
(1.0600097 -1.0660637e-21 9.6482143e-05)
(1.059826 -1.0655143e-21 8.759015e-05)
(1.0596592 0 7.9645817e-05)
(1.0595073 -1.0644154e-21 7.2554284e-05)
(1.0593689 -1.0638657e-21 6.6229546e-05)
(1.0592423 -1.063316e-21 6.0593693e-05)
(1.0591264 -1.0627663e-21 5.5576217e-05)
(1.0590199 0 5.1113359e-05)
(1.0589218 -1.0616665e-21 4.7147521e-05)
(1.0588312 -1.0611166e-21 4.362671e-05)
(1.0587472 -1.0605665e-21 4.0504036e-05)
(1.0586691 -1.0600165e-21 3.7737244e-05)
(1.0585961 -1.0594664e-21 3.5288291e-05)
(1.0585278 0 3.3122954e-05)
(1.0584635 -1.058366e-21 3.1210473e-05)
(1.0584029 -1.0578158e-21 2.9523219e-05)
(1.0583453 -1.0572656e-21 2.8036403e-05)
(1.0582906 -1.0567153e-21 2.6727797e-05)
(1.0582383 0 2.5577491e-05)
(1.0581882 -1.0556147e-21 2.4567661e-05)
(1.05814 -1.0550643e-21 2.3682368e-05)
(1.0580934 -1.054514e-21 2.2907369e-05)
(1.0580482 -1.0539636e-21 2.2229949e-05)
(1.0580044 -1.0534132e-21 2.1638764e-05)
(1.0579616 0 2.1123708e-05)
(1.0579198 -1.0523123e-21 2.0675778e-05)
(1.0578788 -1.0517619e-21 2.0286967e-05)
(1.0578385 -1.0512114e-21 1.995016e-05)
(1.0577989 -1.050661e-21 1.9659037e-05)
(1.0577598 0 1.9407994e-05)
(1.0577212 -1.04956e-21 1.9192062e-05)
(1.0576829 -1.0490096e-21 1.9006845e-05)
(1.0576451 -1.0484591e-21 1.8848455e-05)
(1.0576075 -1.0479086e-21 1.8713456e-05)
(1.0575701 -1.0473581e-21 1.8598818e-05)
(1.057533 0 1.8501869e-05)
(1.057496 -1.046257e-21 1.8420257e-05)
(1.0574592 -1.0457065e-21 1.8351917e-05)
(1.0574225 -1.045156e-21 1.8295031e-05)
(1.0573859 -1.0446055e-21 1.824801e-05)
(1.0573494 0 1.8209459e-05)
(1.057313 -1.0435044e-21 1.8178161e-05)
(1.0572766 -1.0429539e-21 1.8153052e-05)
(1.0572403 -1.0424034e-21 1.8133206e-05)
(1.0572039 -1.0418528e-21 1.8117817e-05)
(1.0571677 -1.0413023e-21 1.8106185e-05)
(1.0571314 0 1.8097705e-05)
(1.0570952 -1.0402012e-21 1.8091854e-05)
(1.0570589 -1.0396506e-21 1.8088178e-05)
(1.0570227 -1.0391001e-21 1.808629e-05)
(1.0569865 -1.0385495e-21 1.8085857e-05)
(1.0569502 -1.037999e-21 1.8086594e-05)
(1.056914 0 1.8088257e-05)
(1.0568778 -1.0368979e-21 1.809064e-05)
(1.0568415 -1.0363473e-21 1.8093571e-05)
(1.0568053 -1.0357968e-21 1.8096901e-05)
(1.056769 -1.0352462e-21 1.8100508e-05)
(1.0567327 0 1.810429e-05)
(1.0566965 -1.0341451e-21 1.8108163e-05)
(1.0566602 -1.0335945e-21 1.8112059e-05)
(1.0566239 -1.033044e-21 1.811592e-05)
(1.0565876 -1.0324934e-21 1.8119703e-05)
(1.0565513 -1.0319429e-21 1.8123373e-05)
(1.0565149 0 1.8126902e-05)
(1.0564786 -1.0308417e-21 1.813027e-05)
(1.0564423 -1.0302912e-21 1.8133464e-05)
(1.0564059 -1.0297406e-21 1.8136472e-05)
(1.0563696 -1.02919e-21 1.8139289e-05)
(1.0563332 0 1.8141914e-05)
(1.0562969 -1.0280889e-21 1.8144345e-05)
(1.0562605 -1.0275383e-21 1.8146585e-05)
(1.0562241 -1.0269878e-21 1.8148638e-05)
(1.0561877 -1.0264372e-21 1.815051e-05)
(1.0561514 -1.0258866e-21 1.8152206e-05)
(1.056115 0 1.8153734e-05)
(1.0560786 -1.0247855e-21 1.8155101e-05)
(1.0560422 -1.0242349e-21 1.8156315e-05)
(1.0560058 -1.0236843e-21 1.8157384e-05)
(1.0559694 -1.0231337e-21 1.8158316e-05)
(1.055933 0 1.815912e-05)
(1.0558966 -1.0220326e-21 1.8159803e-05)
(1.0558602 -1.021482e-21 1.8160373e-05)
(1.0558238 -1.0209314e-21 1.8160838e-05)
(1.0557874 -1.0203808e-21 1.8161204e-05)
(1.055751 -1.0198302e-21 1.8161479e-05)
(1.0557145 0 1.816167e-05)
(1.0556781 -1.0187291e-21 1.8161782e-05)
(1.0556417 -1.0181785e-21 1.8161822e-05)
(1.0556053 -1.0176279e-21 1.8161794e-05)
(1.0555689 -1.0170773e-21 1.8161706e-05)
(1.0555325 0 1.816156e-05)
(1.055496 -1.0159761e-21 1.8161363e-05)
(1.0554596 -1.0154256e-21 1.8161118e-05)
(1.0554232 -1.014875e-21 1.8160829e-05)
(1.0553868 -1.0143244e-21 1.81605e-05)
(1.0553504 -1.0137738e-21 1.8160134e-05)
(1.0553139 0 1.8159735e-05)
(1.0552775 0 1.8159306e-05)
(1.0552411 -1.012122e-21 1.8158848e-05)
(1.0552047 0 1.8158366e-05)
(1.0551683 -1.0110208e-21 1.815786e-05)
(1.0551318 0 1.8157334e-05)
(1.0550954 0 1.8156788e-05)
(1.055059 -1.009369e-21 1.8156226e-05)
(1.0550226 0 1.8155647e-05)
(1.0549862 -1.0082678e-21 1.8155055e-05)
(1.0549497 -1.0077172e-21 1.815445e-05)
(1.0549133 0 1.8153833e-05)
(1.0548769 -1.006616e-21 1.8153206e-05)
(1.0548405 0 1.815257e-05)
(1.0548041 -1.0055148e-21 1.8151925e-05)
(1.0547677 -1.0049642e-21 1.8151273e-05)
(1.0547312 0 1.8150613e-05)
(1.0546948 0 1.8149948e-05)
(1.0546584 0 1.8149277e-05)
(1.054622 -1.0027618e-21 1.8148601e-05)
(1.0545856 -1.0022112e-21 1.814792e-05)
(1.0545492 0 1.8147236e-05)
(1.0545128 0 1.8146548e-05)
(1.0544763 0 1.8145856e-05)
(1.0544399 -1.0000087e-21 1.8145162e-05)
(1.0544035 -9.9945812e-22 1.8144465e-05)
(1.0543671 0 1.8143766e-05)
(1.0543307 -9.9835689e-22 1.8143065e-05)
(1.0542943 0 1.8142362e-05)
(1.0542579 -9.9725566e-22 1.8141657e-05)
(1.0542215 -9.9670504e-22 1.8140951e-05)
(1.054185 0 1.8140244e-05)
(1.0541486 -9.9560381e-22 1.8139535e-05)
(1.0541122 0 1.8138826e-05)
(1.0540758 -9.9450257e-22 1.8138115e-05)
(1.0540394 -9.9395195e-22 1.8137404e-05)
(1.054003 0 1.8136692e-05)
(1.0539666 -9.928507e-22 1.8135979e-05)
(1.0539302 0 1.8135265e-05)
(1.0538938 0 1.8134552e-05)
(1.0538574 -9.9119883e-22 1.8133837e-05)
(1.053821 0 1.8133123e-05)
(1.0537846 -9.9009758e-22 1.8132408e-05)
(1.0537482 0 1.8131692e-05)
(1.0537118 0 1.8130977e-05)
(1.0536754 -9.884457e-22 1.8130261e-05)
(1.053639 0 1.8129545e-05)
(1.0536026 -9.8734444e-22 1.8128828e-05)
(1.0535662 0 1.8128112e-05)
(1.0535298 -9.8624318e-22 1.8127395e-05)
(1.0534934 0 1.8126678e-05)
(1.053457 0 1.8125962e-05)
(1.0534206 -9.8459128e-22 1.8125245e-05)
(1.0533842 0 1.8124528e-05)
(1.0533478 0 1.8123811e-05)
(1.0533114 0 1.8123093e-05)
(1.053275 0 1.8122376e-05)
(1.0532386 -9.818381e-22 1.8121659e-05)
(1.0532022 0 1.8120942e-05)
(1.0531658 0 1.8120225e-05)
(1.0531294 -9.8018618e-22 1.8119508e-05)
(1.053093 0 1.811879e-05)
(1.0530566 -9.790849e-22 1.8118073e-05)
(1.0530202 0 1.8117356e-05)
(1.0529838 0 1.8116639e-05)
(1.0529474 -9.7743297e-22 1.8115922e-05)
(1.052911 0 1.8115205e-05)
(1.0528746 0 1.8114488e-05)
(1.0528383 0 1.8113771e-05)
(1.0528019 0 1.8113054e-05)
(1.0527655 -9.7467974e-22 1.8112337e-05)
(1.0527291 0 1.8111621e-05)
(1.0526927 0 1.8110904e-05)
(1.0526563 0 1.8110187e-05)
(1.0526199 0 1.8109471e-05)
(1.0525835 -9.7192649e-22 1.8108754e-05)
(1.0525472 0 1.8108038e-05)
(1.0525108 -9.7082519e-22 1.8107322e-05)
(1.0524744 0 1.8106606e-05)
(1.052438 0 1.8105889e-05)
(1.0524016 -9.6917323e-22 1.8105173e-05)
(1.0523652 0 1.8104458e-05)
(1.0523288 -9.6807191e-22 1.8103742e-05)
(1.0522925 0 1.8103026e-05)
(1.0522561 0 1.810231e-05)
(1.0522197 -9.6641994e-22 1.8101595e-05)
(1.0521833 0 1.8100879e-05)
(1.0521469 -9.6531862e-22 1.8100164e-05)
(1.0521106 0 1.8099449e-05)
(1.0520742 -9.642173e-22 1.8098733e-05)
(1.0520378 -9.6366663e-22 1.8098018e-05)
(1.0520014 0 1.8097303e-05)
(1.051965 -9.6256531e-22 1.8096588e-05)
(1.0519287 0 1.8095873e-05)
(1.0518923 -9.6146398e-22 1.8095158e-05)
(1.0518559 -9.6091331e-22 1.8094443e-05)
(1.0518195 0 1.8093728e-05)
(1.0517832 -9.5981198e-22 1.8093014e-05)
(1.0517468 0 1.8092299e-05)
(1.0517104 0 1.8091584e-05)
(1.051674 0 1.809087e-05)
(1.0516377 0 1.8090155e-05)
(1.0516013 -9.5705863e-22 1.808944e-05)
(1.0515649 0 1.8088726e-05)
(1.0515286 0 1.8088011e-05)
(1.0514922 0 1.8087297e-05)
(1.0514558 0 1.8086582e-05)
(1.0514194 -9.5430526e-22 1.8085867e-05)
(1.0513831 0 1.8085153e-05)
(1.0513467 0 1.8084438e-05)
(1.0513103 -9.5265323e-22 1.8083723e-05)
(1.051274 0 1.8083009e-05)
(1.0512376 -9.5155188e-22 1.8082294e-05)
(1.0512012 0 1.8081579e-05)
(1.0511649 0 1.8080864e-05)
(1.0511285 -9.4989984e-22 1.808015e-05)
(1.0510921 0 1.8079435e-05)
(1.0510558 -9.4879848e-22 1.807872e-05)
(1.0510194 0 1.8078005e-05)
(1.050983 0 1.807729e-05)
(1.0509467 -9.4714643e-22 1.8076574e-05)
(1.0509103 0 1.8075859e-05)
(1.050874 0 1.8075144e-05)
(1.0508376 0 1.8074429e-05)
(1.0508012 0 1.8073713e-05)
(1.0507649 -9.4439299e-22 1.8072998e-05)
(1.0507285 0 1.8072283e-05)
(1.0506922 -9.4329162e-22 1.8071567e-05)
(1.0506558 0 1.8070851e-05)
(1.0506194 0 1.8070136e-05)
(1.0505831 -9.4163955e-22 1.806942e-05)
(1.0505467 0 1.8068704e-05)
(1.0505104 -9.4053816e-22 1.8067989e-05)
(1.050474 0 1.8067273e-05)
(1.0504377 0 1.8066557e-05)
(1.0504013 -9.3888608e-22 1.8065841e-05)
(1.0503649 0 1.8065125e-05)
(1.0503286 -9.3778469e-22 1.8064409e-05)
(1.0502922 0 1.8063693e-05)
(1.0502559 -9.3668329e-22 1.8062977e-05)
(1.0502195 -9.361326e-22 1.8062261e-05)
(1.0501832 0 1.8061545e-05)
(1.0501468 -9.350312e-22 1.8060829e-05)
(1.0501105 0 1.8060113e-05)
(1.0500741 -9.339298e-22 1.8059398e-05)
(1.0500378 -9.3337909e-22 1.8058682e-05)
(1.0500014 0 1.8057966e-05)
(1.0499651 -9.3227769e-22 1.805725e-05)
(1.0499287 0 1.8056534e-05)
(1.0498924 0 1.8055818e-05)
(1.049856 0 1.8055102e-05)
(1.0498197 0 1.8054387e-05)
(1.0497833 -9.2952416e-22 1.8053671e-05)
(1.049747 0 1.8052956e-05)
(1.0497107 0 1.805224e-05)
(1.0496743 0 1.8051524e-05)
(1.049638 0 1.8050809e-05)
(1.0496016 -9.2677062e-22 1.8050094e-05)
(1.0495653 0 1.8049379e-05)
(1.0495289 0 1.8048663e-05)
(1.0494926 0 1.8047948e-05)
(1.0494562 -9.2456778e-22 1.8047233e-05)
(1.0494199 9.2401706e-22 1.8046518e-05)
(1.0493836 0 1.8045803e-05)
(1.0493472 0 1.8045089e-05)
(1.0493109 0 1.8044374e-05)
(1.0492745 -9.218142e-22 1.8043659e-05)
(1.0492382 9.2126349e-22 1.8042945e-05)
(1.0492019 0 1.804223e-05)
(1.0491655 0 1.8041516e-05)
(1.0491292 0 1.8040802e-05)
(1.0490929 0 1.8040087e-05)
(1.0490565 0 1.8039373e-05)
(1.0490202 0 1.8038659e-05)
(1.0489839 0 1.8037945e-05)
(1.0489475 0 1.8037231e-05)
(1.0489112 0 1.8036517e-05)
(1.0488749 9.1575629e-22 1.8035803e-05)
(1.0488385 -9.1520556e-22 1.8035089e-05)
(1.0488022 0 1.8034375e-05)
(1.0487659 0 1.8033662e-05)
(1.0487295 0 1.8032948e-05)
(1.0486932 9.1300266e-22 1.8032234e-05)
(1.0486569 -9.1245193e-22 1.803152e-05)
(1.0486205 0 1.8030807e-05)
(1.0485842 0 1.8030093e-05)
(1.0485479 0 1.8029379e-05)
(1.0485115 9.1024902e-22 1.8028666e-05)
(1.0484752 0 1.8027952e-05)
(1.0484389 -9.0914756e-22 1.8027238e-05)
(1.0484026 0 1.8026525e-05)
(1.0483662 0 1.8025811e-05)
(1.0483299 9.0749536e-22 1.8025097e-05)
(1.0482936 0 1.8024383e-05)
(1.0482573 -9.0639389e-22 1.802367e-05)
(1.0482209 0 1.8022956e-05)
(1.0481846 0 1.8022242e-05)
(1.0481483 9.0474169e-22 1.8021528e-05)
(1.048112 0 1.8020814e-05)
(1.0480757 0 1.80201e-05)
(1.0480393 -9.0308948e-22 1.8019386e-05)
(1.048003 0 1.8018672e-05)
(1.0479667 9.01988e-22 1.8017958e-05)
(1.0479304 0 1.8017244e-05)
(1.0478941 0 1.801653e-05)
(1.0478577 -9.0033578e-22 1.8015816e-05)
(1.0478214 0 1.8015101e-05)
(1.0477851 8.9923429e-22 1.8014387e-05)
(1.0477488 0 1.8013673e-05)
(1.0477125 0 1.8012958e-05)
(1.0476762 0 1.8012244e-05)
(1.0476398 -8.9703132e-22 1.8011529e-05)
(1.0476035 8.9648057e-22 1.8010815e-05)
(1.0475672 0 1.80101e-05)
(1.0475309 0 1.8009386e-05)
(1.0474946 0 1.8008671e-05)
(1.0474583 -8.9427758e-22 1.8007956e-05)
(1.047422 8.9372683e-22 1.8007242e-05)
(1.0473856 0 1.8006527e-05)
(1.0473493 0 1.8005812e-05)
(1.047313 0 1.8005097e-05)
(1.0472767 0 1.8004383e-05)
(1.0472404 0 1.8003668e-05)
(1.0472041 0 1.8002953e-05)
(1.0471678 0 1.8002238e-05)
(1.0471315 0 1.8001524e-05)
(1.0470952 0 1.8000809e-05)
(1.0470589 0 1.8000094e-05)
(1.0470226 0 1.7999379e-05)
(1.0469862 0 1.7998664e-05)
(1.0469499 0 1.799795e-05)
(1.0469136 0 1.7997235e-05)
(1.0468773 8.8546553e-22 1.799652e-05)
(1.046841 -8.8491477e-22 1.7995806e-05)
(1.0468047 0 1.7995091e-05)
(1.0467684 0 1.7994376e-05)
(1.0467321 0 1.7993662e-05)
(1.0466958 8.8271173e-22 1.7992947e-05)
(1.0466595 0 1.7992233e-05)
(1.0466232 -8.8161021e-22 1.7991519e-05)
(1.0465869 0 1.7990804e-05)
(1.0465506 0 1.799009e-05)
(1.0465143 8.7995792e-22 1.7989376e-05)
(1.046478 0 1.7988661e-05)
(1.0464417 -8.7885639e-22 1.7987947e-05)
(1.0464054 0 1.7987233e-05)
(1.0463691 0 1.7986519e-05)
(1.0463328 8.7720409e-22 1.7985805e-05)
(1.0462965 0 1.7985091e-05)
(1.0462602 0 1.7984377e-05)
(1.0462239 -8.7555178e-22 1.7983663e-05)
(1.0461876 0 1.7982949e-05)
(1.0461514 8.7445025e-22 1.7982235e-05)
(1.0461151 0 1.7981522e-05)
(1.0460788 0 1.7980808e-05)
(1.0460425 -8.7279793e-22 1.7980094e-05)
(1.0460062 0 1.7979381e-05)
(1.0459699 8.7169639e-22 1.7978667e-05)
(1.0459336 0 1.7977954e-05)
(1.0458973 0 1.797724e-05)
(1.045861 0 1.7976527e-05)
(1.0458247 -8.6949329e-22 1.7975814e-05)
(1.0457884 8.6894251e-22 1.79751e-05)
(1.0457522 0 1.7974387e-05)
(1.0457159 0 1.7973674e-05)
(1.0456796 0 1.7972961e-05)
(1.0456433 -8.6673941e-22 1.7972247e-05)
(1.045607 8.6618863e-22 1.7971534e-05)
(1.0455707 0 1.7970821e-05)
(1.0455344 0 1.7970108e-05)
(1.0454982 0 1.7969395e-05)
(1.0454619 0 1.7968682e-05)
(1.0454256 0 1.7967969e-05)
(1.0453893 0 1.7967256e-05)
(1.045353 0 1.7966543e-05)
(1.0453167 0 1.796583e-05)
(1.0452805 0 1.7965117e-05)
(1.0452442 0 1.7964404e-05)
(1.0452079 0 1.7963691e-05)
(1.0451716 0 1.7962978e-05)
(1.0451353 0 1.7962265e-05)
(1.0450991 0 1.7961552e-05)
(1.0450628 8.5792688e-22 1.7960839e-05)
(1.0450265 -8.5737609e-22 1.7960126e-05)
(1.0449902 0 1.7959413e-05)
(1.0449539 0 1.79587e-05)
(1.0449177 0 1.7957987e-05)
(1.0448814 8.5517294e-22 1.7957274e-05)
(1.0448451 0 1.7956561e-05)
(1.0448088 -8.5407135e-22 1.7955848e-05)
(1.0447726 0 1.7955135e-05)
(1.0447363 0 1.7954422e-05)
(1.0447 8.5241898e-22 1.7953709e-05)
(1.0446638 0 1.7952996e-05)
(1.0446275 -8.5131739e-22 1.7952283e-05)
(1.0445912 0 1.7951569e-05)
(1.0445549 0 1.7950856e-05)
(1.0445187 8.4966501e-22 1.7950143e-05)
(1.0444824 0 1.794943e-05)
(1.0444461 0 1.7948717e-05)
(1.0444099 -8.4801262e-22 1.7948004e-05)
(1.0443736 0 1.7947291e-05)
(1.0443373 8.4691102e-22 1.7946578e-05)
(1.0443011 0 1.7945865e-05)
(1.0442648 0 1.7945151e-05)
(1.0442285 -8.4525862e-22 1.7944438e-05)
(1.0441923 0 1.7943725e-05)
(1.044156 8.4415702e-22 1.7943012e-05)
(1.0441197 0 1.7942299e-05)
(1.0440835 0 1.7941586e-05)
(1.0440472 0 1.7940873e-05)
(1.0440109 -8.4195381e-22 1.7940159e-05)
(1.0439747 8.4140301e-22 1.7939446e-05)
(1.0439384 0 1.7938733e-05)
(1.0439021 0 1.793802e-05)
(1.0438659 0 1.7937307e-05)
(1.0438296 -8.3919979e-22 1.7936594e-05)
(1.0437934 8.3864898e-22 1.7935881e-05)
(1.0437571 0 1.7935168e-05)
(1.0437209 0 1.7934454e-05)
(1.0436846 0 1.7933741e-05)
(1.0436483 0 1.7933028e-05)
(1.0436121 0 1.7932315e-05)
(1.0435758 0 1.7931602e-05)
(1.0435396 0 1.7930889e-05)
(1.0435033 0 1.7930176e-05)
(1.0434671 0 1.7929463e-05)
(1.0434308 0 1.792875e-05)
(1.0433945 0 1.7928037e-05)
(1.0433583 0 1.7927324e-05)
(1.043322 0 1.7926611e-05)
(1.0432858 0 1.7925898e-05)
(1.0432495 8.3038683e-22 1.7925185e-05)
(1.0432133 -8.2983601e-22 1.7924473e-05)
(1.043177 0 1.792376e-05)
(1.0431408 0 1.7923047e-05)
(1.0431045 0 1.7922334e-05)
(1.0430683 8.2763275e-22 1.7921621e-05)
(1.043032 0 1.7920909e-05)
(1.0429958 -8.2653111e-22 1.7920196e-05)
(1.0429595 0 1.7919483e-05)
(1.0429233 0 1.791877e-05)
(1.042887 8.2487866e-22 1.7918058e-05)
(1.0428508 0 1.7917345e-05)
(1.0428145 -8.2377702e-22 1.7916633e-05)
(1.0427783 0 1.791592e-05)
(1.0427421 0 1.7915207e-05)
(1.0427058 8.2212455e-22 1.7914495e-05)
(1.0426696 0 1.7913782e-05)
(1.0426333 0 1.791307e-05)
(1.0425971 -8.2047209e-22 1.7912357e-05)
(1.0425608 0 1.7911645e-05)
(1.0425246 8.1937044e-22 1.7910932e-05)
(1.0424884 0 1.791022e-05)
(1.0424521 0 1.7909508e-05)
(1.0424159 -8.1771796e-22 1.7908795e-05)
(1.0423796 0 1.7908083e-05)
(1.0423434 8.1661631e-22 1.7907371e-05)
(1.0423072 0 1.7906658e-05)
(1.0422709 0 1.7905946e-05)
(1.0422347 0 1.7905234e-05)
(1.0421985 -8.14413e-22 1.7904522e-05)
(1.0421622 8.1386217e-22 1.7903809e-05)
(1.042126 0 1.7903097e-05)
(1.0420897 0 1.7902385e-05)
(1.0420535 0 1.7901673e-05)
(1.0420173 -8.1165885e-22 1.7900961e-05)
(1.041981 8.1110801e-22 1.7900249e-05)
(1.0419448 0 1.7899536e-05)
(1.0419086 0 1.7898824e-05)
(1.0418723 0 1.7898112e-05)
(1.0418361 0 1.78974e-05)
(1.0417999 0 1.7896688e-05)
(1.0417636 0 1.7895976e-05)
(1.0417274 0 1.7895264e-05)
(1.0416912 0 1.7894552e-05)
(1.041655 0 1.789384e-05)
(1.0416187 0 1.7893128e-05)
(1.0415825 0 1.7892416e-05)
(1.0415463 0 1.7891704e-05)
(1.04151 0 1.7890992e-05)
(1.0414738 0 1.789028e-05)
(1.0414376 8.0284548e-22 1.7889568e-05)
(1.0414014 -8.0229464e-22 1.7888856e-05)
(1.0413651 0 1.7888144e-05)
(1.0413289 0 1.7887432e-05)
(1.0412927 0 1.788672e-05)
(1.0412565 8.0009128e-22 1.7886008e-05)
(1.0412203 -7.9954044e-22 1.7885296e-05)
(1.041184 0 1.7884584e-05)
(1.0411478 0 1.7883872e-05)
(1.0411116 0 1.788316e-05)
(1.0410754 7.9733707e-22 1.7882448e-05)
(1.0410391 0 1.7881736e-05)
(1.0410029 -7.9623538e-22 1.7881024e-05)
(1.0409667 0 1.7880312e-05)
(1.0409305 0 1.78796e-05)
(1.0408943 7.9458285e-22 1.7878888e-05)
(1.0408581 0 1.7878176e-05)
(1.0408218 0 1.7877464e-05)
(1.0407856 -7.9293031e-22 1.7876752e-05)
(1.0407494 0 1.787604e-05)
(1.0407132 7.9182861e-22 1.7875328e-05)
(1.040677 0 1.7874616e-05)
(1.0406408 0 1.7873904e-05)
(1.0406045 -7.9017607e-22 1.7873192e-05)
(1.0405683 0 1.787248e-05)
(1.0405321 7.8907437e-22 1.7871768e-05)
(1.0404959 0 1.7871056e-05)
(1.0404597 0 1.7870344e-05)
(1.0404235 0 1.7869632e-05)
(1.0403873 -7.8687096e-22 1.786892e-05)
(1.0403511 7.8632011e-22 1.7868208e-05)
(1.0403149 0 1.7867497e-05)
(1.0402786 0 1.7866785e-05)
(1.0402424 0 1.7866073e-05)
(1.0402062 -7.8411669e-22 1.7865361e-05)
(1.04017 7.8356584e-22 1.7864649e-05)
(1.0401338 0 1.7863938e-05)
(1.0400976 0 1.7863226e-05)
(1.0400614 0 1.7862514e-05)
(1.0400252 0 1.7861802e-05)
(1.039989 0 1.7861091e-05)
(1.0399528 0 1.7860379e-05)
(1.0399166 0 1.7859667e-05)
(1.0398804 0 1.7858956e-05)
(1.0398442 0 1.7858244e-05)
(1.039808 0 1.7857532e-05)
(1.0397718 0 1.7856821e-05)
(1.0397356 0 1.7856109e-05)
(1.0396994 0 1.7855398e-05)
(1.0396632 0 1.7854686e-05)
(1.039627 7.7530297e-22 1.7853975e-05)
(1.0395908 -7.7475211e-22 1.7853264e-05)
(1.0395546 0 1.7852552e-05)
(1.0395184 0 1.7851841e-05)
(1.0394822 0 1.7851129e-05)
(1.039446 7.7254866e-22 1.7850418e-05)
(1.0394098 -7.7199779e-22 1.7849707e-05)
(1.0393736 0 1.7848996e-05)
(1.0393374 0 1.7848284e-05)
(1.0393012 0 1.7847573e-05)
(1.039265 7.6979434e-22 1.7846862e-05)
(1.0392288 0 1.7846151e-05)
(1.0391926 -7.686926e-22 1.784544e-05)
(1.0391564 0 1.7844729e-05)
(1.0391202 0 1.7844018e-05)
(1.039084 7.6704e-22 1.7843307e-05)
(1.0390478 0 1.7842596e-05)
(1.0390117 0 1.7841885e-05)
(1.0389755 -7.653874e-22 1.7841174e-05)
(1.0389393 0 1.7840463e-05)
(1.0389031 7.6428566e-22 1.7839752e-05)
(1.0388669 0 1.7839041e-05)
(1.0388307 0 1.783833e-05)
(1.0387945 -7.6263305e-22 1.7837619e-05)
(1.0387583 0 1.7836908e-05)
(1.0387221 7.6153131e-22 1.7836197e-05)
(1.038686 0 1.7835486e-05)
(1.0386498 0 1.7834775e-05)
(1.0386136 0 1.7834064e-05)
(1.0385774 -7.5932782e-22 1.7833354e-05)
(1.0385412 7.5877695e-22 1.7832643e-05)
(1.038505 0 1.7831932e-05)
(1.0384689 0 1.7831221e-05)
(1.0384327 0 1.783051e-05)
(1.0383965 -7.5657345e-22 1.7829799e-05)
(1.0383603 7.5602257e-22 1.7829088e-05)
(1.0383241 0 1.7828377e-05)
(1.038288 0 1.7827666e-05)
(1.0382518 0 1.7826955e-05)
(1.0382156 0 1.7826244e-05)
(1.0381794 0 1.7825533e-05)
(1.0381432 0 1.7824822e-05)
(1.0381071 0 1.7824112e-05)
(1.0380709 0 1.7823401e-05)
(1.0380347 0 1.782269e-05)
(1.0379985 0 1.7821979e-05)
(1.0379624 0 1.7821268e-05)
(1.0379262 0 1.7820557e-05)
(1.03789 7.4886116e-22 1.7819845e-05)
(1.0378538 7.4831028e-22 1.7819134e-05)
(1.0378177 7.477594e-22 1.7818423e-05)
(1.0377815 0 1.7817712e-05)
(1.0377453 7.4665764e-22 1.7817001e-05)
(1.0377091 7.4610675e-22 1.781629e-05)
(1.037673 7.4555587e-22 1.7815579e-05)
(1.0376368 7.4500499e-22 1.7814868e-05)
(1.0376006 0 1.7814157e-05)
(1.0375645 7.4390322e-22 1.7813446e-05)
(1.0375283 7.4335234e-22 1.7812735e-05)
(1.0374921 7.4280145e-22 1.7812024e-05)
(1.0374559 7.4225057e-22 1.7811313e-05)
(1.0374198 7.4169968e-22 1.7810602e-05)
(1.0373836 0 1.7809891e-05)
(1.0373474 7.4059791e-22 1.780918e-05)
(1.0373113 7.4004703e-22 1.7808469e-05)
(1.0372751 7.3949614e-22 1.7807758e-05)
(1.0372389 7.3894525e-22 1.7807047e-05)
(1.0372028 0 1.7806336e-05)
(1.0371666 7.3784348e-22 1.7805625e-05)
(1.0371305 7.3729259e-22 1.7804915e-05)
(1.0370943 7.367417e-22 1.7804204e-05)
(1.0370581 7.3619081e-22 1.7803493e-05)
(1.037022 7.3563992e-22 1.7802782e-05)
(1.0369858 0 1.7802071e-05)
(1.0369496 7.3453814e-22 1.7801361e-05)
(1.0369135 7.3398725e-22 1.780065e-05)
(1.0368773 7.3343636e-22 1.779994e-05)
(1.0368412 7.3288547e-22 1.7799229e-05)
(1.036805 7.3233458e-22 1.7798518e-05)
(1.0367689 0 1.7797808e-05)
(1.0367327 7.312328e-22 1.7797097e-05)
(1.0366965 7.3068191e-22 1.7796387e-05)
(1.0366604 7.3013101e-22 1.7795677e-05)
(1.0366242 7.2958012e-22 1.7794966e-05)
(1.0365881 0 1.7794256e-05)
(1.0365519 7.2847833e-22 1.7793546e-05)
(1.0365158 7.2792744e-22 1.7792835e-05)
(1.0364796 7.2737655e-22 1.7792125e-05)
(1.0364434 7.2682565e-22 1.7791415e-05)
(1.0364073 7.2627476e-22 1.7790705e-05)
(1.0363711 0 1.7789995e-05)
(1.036335 7.2517297e-22 1.7789285e-05)
(1.0362988 7.2462207e-22 1.7788575e-05)
(1.0362627 7.2407117e-22 1.7787865e-05)
(1.0362265 7.2352028e-22 1.7787155e-05)
(1.0361904 0 1.7786445e-05)
(1.0361542 7.2241848e-22 1.7785735e-05)
(1.0361181 7.2186758e-22 1.7785025e-05)
(1.0360819 7.2131669e-22 1.7784315e-05)
(1.0360458 7.2076579e-22 1.7783605e-05)
(1.0360096 7.2021489e-22 1.7782895e-05)
(1.0359735 0 1.7782185e-05)
(1.0359374 7.1911309e-22 1.7781476e-05)
(1.0359012 7.1856219e-22 1.7780766e-05)
(1.0358651 7.1801129e-22 1.7780056e-05)
(1.0358289 7.1746039e-22 1.7779346e-05)
(1.0357928 0 1.7778636e-05)
(1.0357566 7.1635859e-22 1.7777926e-05)
(1.0357205 7.1580769e-22 1.7777217e-05)
(1.0356843 7.1525679e-22 1.7776507e-05)
(1.0356482 7.1470589e-22 1.7775797e-05)
(1.0356121 7.1415498e-22 1.7775087e-05)
(1.0355759 0 1.7774377e-05)
(1.0355398 7.1305318e-22 1.7773668e-05)
(1.0355036 7.1250227e-22 1.7772958e-05)
(1.0354675 7.1195137e-22 1.7772248e-05)
(1.0354314 7.1140047e-22 1.7771538e-05)
(1.0353952 0 1.7770828e-05)
(1.0353591 7.1029866e-22 1.7770118e-05)
(1.0353229 7.0974775e-22 1.7769408e-05)
(1.0352868 7.0919685e-22 1.7768699e-05)
(1.0352507 7.0864594e-22 1.7767989e-05)
(1.0352145 7.0809504e-22 1.7767279e-05)
(1.0351784 0 1.7766569e-05)
(1.0351423 7.0699323e-22 1.7765859e-05)
(1.0351061 7.0644232e-22 1.7765149e-05)
(1.03507 7.0589141e-22 1.7764439e-05)
(1.0350339 7.0534051e-22 1.7763729e-05)
(1.0349977 7.047896e-22 1.7763019e-05)
(1.0349616 0 1.7762309e-05)
(1.0349255 7.0368778e-22 1.7761599e-05)
(1.0348893 7.0313687e-22 1.7760889e-05)
(1.0348532 7.0258596e-22 1.7760179e-05)
(1.0348171 7.0203506e-22 1.7759469e-05)
(1.034781 0 1.7758759e-05)
(1.0347448 7.0093324e-22 1.7758049e-05)
(1.0347087 7.0038233e-22 1.7757339e-05)
(1.0346726 6.9983142e-22 1.7756629e-05)
(1.0346364 6.9928051e-22 1.7755919e-05)
(1.0346003 6.987296e-22 1.7755209e-05)
(1.0345642 0 1.7754499e-05)
(1.0345281 6.9762777e-22 1.7753789e-05)
(1.0344919 6.9707686e-22 1.7753079e-05)
(1.0344558 6.9652595e-22 1.775237e-05)
(1.0344197 6.9597504e-22 1.775166e-05)
(1.0343836 0 1.775095e-05)
(1.0343474 6.9487321e-22 1.775024e-05)
(1.0343113 6.943223e-22 1.774953e-05)
(1.0342752 6.9377139e-22 1.774882e-05)
(1.0342391 6.9322047e-22 1.7748111e-05)
(1.034203 6.9266956e-22 1.7747401e-05)
(1.0341668 0 1.7746691e-05)
(1.0341307 6.9156773e-22 1.7745981e-05)
(1.0340946 6.9101681e-22 1.7745272e-05)
(1.0340585 6.904659e-22 1.7744562e-05)
(1.0340224 6.8991498e-22 1.7743852e-05)
(1.0339862 0 1.7743143e-05)
(1.0339501 6.8881315e-22 1.7742433e-05)
(1.033914 6.8826224e-22 1.7741724e-05)
(1.0338779 6.8771132e-22 1.7741014e-05)
(1.0338418 6.871604e-22 1.7740305e-05)
(1.0338057 6.8660949e-22 1.7739595e-05)
(1.0337695 0 1.7738886e-05)
(1.0337334 6.8550765e-22 1.7738176e-05)
(1.0336973 6.8495673e-22 1.7737467e-05)
(1.0336612 6.8440582e-22 1.7736758e-05)
(1.0336251 6.838549e-22 1.7736048e-05)
(1.033589 0 1.7735339e-05)
(1.0335529 6.8275306e-22 1.773463e-05)
(1.0335167 6.8220214e-22 1.7733921e-05)
(1.0334806 6.8165122e-22 1.7733211e-05)
(1.0334445 6.811003e-22 1.7732502e-05)
(1.0334084 6.8054938e-22 1.7731793e-05)
(1.0333723 0 1.7731084e-05)
(1.0333362 6.7944754e-22 1.7730375e-05)
(1.0333001 6.7889662e-22 1.7729666e-05)
(1.033264 6.783457e-22 1.7728957e-05)
(1.0332279 6.7779478e-22 1.7728248e-05)
(1.0331918 0 1.7727539e-05)
(1.0331557 6.7669294e-22 1.772683e-05)
(1.0331196 6.7614201e-22 1.7726121e-05)
(1.0330835 6.7559109e-22 1.7725412e-05)
(1.0330474 6.7504017e-22 1.7724703e-05)
(1.0330112 6.7448925e-22 1.7723994e-05)
(1.0329751 0 1.7723285e-05)
(1.032939 6.733874e-22 1.7722576e-05)
(1.0329029 6.7283648e-22 1.7721867e-05)
(1.0328668 6.7228555e-22 1.7721158e-05)
(1.0328307 6.7173463e-22 1.7720449e-05)
(1.0327946 6.711837e-22 1.7719741e-05)
(1.0327585 0 1.7719032e-05)
(1.0327224 6.7008186e-22 1.7718323e-05)
(1.0326863 6.6953093e-22 1.7717614e-05)
(1.0326502 6.6898001e-22 1.7716905e-05)
(1.0326141 6.6842908e-22 1.7716196e-05)
(1.032578 0 1.7715487e-05)
(1.0325419 6.6732723e-22 1.7714778e-05)
(1.0325059 6.667763e-22 1.771407e-05)
(1.0324698 6.6622538e-22 1.7713361e-05)
(1.0324337 6.6567445e-22 1.7712652e-05)
(1.0323976 6.6512352e-22 1.7711943e-05)
(1.0323615 0 1.7711234e-05)
(1.0323254 6.6402167e-22 1.7710525e-05)
(1.0322893 6.6347074e-22 1.7709816e-05)
(1.0322532 6.6291981e-22 1.7709107e-05)
(1.0322171 6.6236888e-22 1.7708399e-05)
(1.032181 0 1.770769e-05)
(1.0321449 6.6126703e-22 1.7706981e-05)
(1.0321088 6.607161e-22 1.7706272e-05)
(1.0320727 6.6016517e-22 1.7705563e-05)
(1.0320366 6.5961424e-22 1.7704854e-05)
(1.0320006 6.5906331e-22 1.7704145e-05)
(1.0319645 0 1.7703436e-05)
(1.0319284 6.5796145e-22 1.7702728e-05)
(1.0318923 6.5741052e-22 1.7702019e-05)
(1.0318562 6.5685959e-22 1.770131e-05)
(1.0318201 6.5630866e-22 1.7700601e-05)
(1.031784 0 1.7699892e-05)
(1.0317479 6.552068e-22 1.7699183e-05)
(1.0317119 6.5465587e-22 1.7698474e-05)
(1.0316758 6.5410494e-22 1.7697766e-05)
(1.0316397 6.5355401e-22 1.7697057e-05)
(1.0316036 6.5300307e-22 1.7696348e-05)
(1.0315675 0 1.7695639e-05)
(1.0315314 6.5190121e-22 1.769493e-05)
(1.0314954 6.5135028e-22 1.7694222e-05)
(1.0314593 6.5079935e-22 1.7693513e-05)
(1.0314232 6.5024841e-22 1.7692804e-05)
(1.0313871 0 1.7692096e-05)
(1.031351 6.4914655e-22 1.7691387e-05)
(1.031315 6.4859561e-22 1.7690678e-05)
(1.0312789 6.4804468e-22 1.7689969e-05)
(1.0312428 6.4749374e-22 1.7689261e-05)
(1.0312067 6.4694281e-22 1.7688552e-05)
(1.0311706 0 1.7687844e-05)
(1.0311346 6.4584094e-22 1.7687135e-05)
(1.0310985 6.4529001e-22 1.7686426e-05)
(1.0310624 6.4473907e-22 1.7685718e-05)
(1.0310263 6.4418814e-22 1.7685009e-05)
(1.0309903 6.436372e-22 1.7684301e-05)
(1.0309542 0 1.7683592e-05)
(1.0309181 6.4253533e-22 1.7682884e-05)
(1.0308821 6.419844e-22 1.7682175e-05)
(1.030846 6.4143346e-22 1.7681467e-05)
(1.0308099 6.4088252e-22 1.7680758e-05)
(1.0307738 0 1.768005e-05)
(1.0307378 6.3978065e-22 1.7679342e-05)
(1.0307017 6.3922971e-22 1.7678633e-05)
(1.0306656 6.3867878e-22 1.7677925e-05)
(1.0306296 6.3812784e-22 1.7677217e-05)
(1.0305935 6.375769e-22 1.7676508e-05)
(1.0305574 0 1.76758e-05)
(1.0305214 6.3647503e-22 1.7675092e-05)
(1.0304853 6.3592409e-22 1.7674384e-05)
(1.0304492 6.3537315e-22 1.7673675e-05)
(1.0304132 6.3482221e-22 1.7672967e-05)
(1.0303771 0 1.7672259e-05)
(1.030341 6.3372033e-22 1.7671551e-05)
(1.030305 6.331694e-22 1.7670843e-05)
(1.0302689 6.3261846e-22 1.7670134e-05)
(1.0302328 6.3206752e-22 1.7669426e-05)