/*--------------------------------*- C++ -*----------------------------------*\
  =========                 |
  \\      /  F ield         | OpenFOAM: The Open Source CFD Toolbox
   \\    /   O peration     | Website:  https://openfoam.org
    \\  /    A nd           | Version:  6
     \\/     M anipulation  |
\*---------------------------------------------------------------------------*/
FoamFile
{
    version     2.0;
    format      ascii;
    class       volVectorField;
    location    "3315";
    object      grad(p);
}
// * * * * * * * * * * * * * * * * * * * * * * * * * * * * * * * * * * * * * //

dimensions      [0 1 -2 0 0 0 0];

internalField   nonuniform List<vector> 
4000
(
(-16630.915 0 -28035.504)
(-153408.17 0 -7576.8413)
(-62820.566 0 358.22389)
(-21328.982 0 -4144.6265)
(-57909.494 0 3247.6536)
(-27847.19 0 -2445.3624)
(-55410.824 0 2006.2602)
(-36357.65 0 -1416.6562)
(-51455.499 0 1081.2978)
(-40626.196 0 -781.85691)
(-48710.134 0 579.52124)
(-42815.354 0 -422.21386)
(-47159.187 0 310.97179)
(-43990.676 0 -227.76872)
(-46329.73 0 167.60758)
(-44632.21 0 -122.47459)
(-45893.985 0 90.372788)
(-44986.69 0 -65.285625)
(-45669.553 0 48.223032)
(-45186.687 0 -34.166562)
(-45558.482 0 26.133936)
(-45303.739 0 -18.097273)
(-45508.344 0 15.084852)
(-45376.067 0 -9.0531875)
(-45490.923 0 8.049302)
(-45424.482 0 -5.0320795)
(-45491.012 0 4.0266767)
(-45460.09 0 -2.0138452)
(-45500.707 0 2.0143523)
(-45488.794 0 -1.0074298)
(-45515.403 0 1.0076836)
(-45513.797 0 0)
(-45532.802 0 1.0081915)
(-45536.798 0 0)
(-45551.901 0 1.0087)
(-45558.699 0 1.0089545)
(-45571.6 0 1.009209)
(-45580.099 0 1.0094637)
(-45591.8 0 1.0097185)
(-45601.199 0 1.0099735)
(-45612.3 0 1.0102286)
(-45622.099 0 0)
(-45632.9 0 0)
(-45643.099 0 0)
(-45653.7 0 1.0112501)
(-45663.8 0 1.0115059)
(-45674.4 0 0)
(-45684.8 0 1.0120177)
(-45695.2 0 1.0122738)
(-45705.6 0 0)
(-45716.1 0 1.0127864)
(-45726.5 0 1.0130429)
(-45736.9 0 1.0132996)
(-45747.3 0 0)
(-45757.9 0 0)
(-45768.3 0 1.0140702)
(-45778.7 0 0)
(-45789.3 0 0)
(-45799.7 0 1.0148421)
(-45810.1 0 0)
(-45820.7 0 0)
(-45831.2 0 0)
(-45841.7 0 0)
(-45852.2 0 1.0161311)
(-45862.7 0 1.0163893)
(-45873.2 0 1.0166476)
(-45883.7 0 1.0169061)
(-45894.2 0 1.0171647)
(-45904.8 0 0)
(-45915.4 0 1.0176822)
(-45925.8 0 1.0179412)
(-45936.4 0 0)
(-45947 0 1.0184596)
(-45957.5 0 1.0187189)
(-45968.1 0 1.0189785)
(-45978.7 0 1.0192381)
(-45989.2 0 1.0194979)
(-45999.8 0 0)
(-46010.5 0 0)
(-46021 0 1.020278)
(-46031.6 0 0)
(-46042.3 0 1.0207988)
(-46052.8 0 1.0210594)
(-46063.4 0 0)
(-46074.1 0 0)
(-46084.8 0 0)
(-46095.4 0 1.022103)
(-46106 0 1.0223642)
(-46116.7 0 1.0226256)
(-46127.3 0 1.0228871)
(-46137.9 0 1.0231487)
(-46148.6 0 0)
(-46159.3 0 1.0236724)
(-46170 0 0)
(-46180.7 0 1.0241967)
(-46191.3 0 1.024459)
(-46202 0 0)
(-46212.8 0 0)
(-46223.5 0 1.0252467)
(-46234.2 0 1.0255096)
(-46244.9 0 1.0257725)
(-46255.6 0 1.0260356)
(-46266.3 0 1.0262989)
(-46277 0 0)
(-46287.8 0 0)
(-46298.6 0 0)
(-46309.4 0 0)
(-46320.1 0 1.0276172)
(-46330.8 0 1.0278813)
(-46341.6 0 0)
(-46352.4 0 0)
(-46363.2 0 0)
(-46374 0 1.0289389)
(-46384.8 0 1.0292037)
(-46395.5 0 1.0294685)
(-46406.3 0 0)
(-46417.2 0 0)
(-46428 0 0)
(-46438.9 0 0)
(-46449.7 0 1.030795)
(-46460.5 0 1.0310607)
(-46471.3 0 1.0313265)
(-46482.1 0 0)
(-46493.1 0 0)
(-46504 0 1.0321249)
(-46514.8 0 1.0323913)
(-46525.6 0 1.0326578)
(-46536.5 0 1.0329245)
(-46547.4 0 1.0331913)
(-46558.3 0 1.0334582)
(-46569.2 0 1.0337253)
(-46580.1 0 1.0339925)
(-46591 0 1.0342599)
(-46601.899 0 1.0345273)
(-46612.8 0 1.034795)
(-46623.8 0 0)
(-46634.7 0 1.0353307)
(-46645.6 0 0)
(-46656.6 0 1.0358669)
(-46667.5 0 0)
(-46678.5 0 0)
(-46689.5 0 0)
(-46700.4 0 1.036941)
(-46711.4 0 0)
(-46722.4 0 1.0374789)
(-46733.3 0 0)
(-46744.4 0 0)
(-46755.4 0 1.0382868)
(-46766.299 0 1.0385564)
(-46777.4 0 0)
(-46788.4 0 1.039096)
(-46799.4 0 0)
(-46810.499 0 1.0396361)
(-46821.499 0 1.0399064)
(-46832.499 0 1.0401768)
(-46843.499 0 1.0404474)
(-46854.6 0 0)
(-46865.73 0 0)
(-46876.77 0 0.62475595)
(-46887.82 0 0.52076553)
(-46898.91 0 0.62508139)
(-46909.99 0 0.62524424)
(-46921.08 0 0.62540717)
(-46932.18 0 0.62557018)
(-46943.28 0 0.62573328)
(-46954.39 0 0.62589647)
(-46965.51 0 0.52171645)
(-46976.63 0 0.62622309)
(-46987.76 0 0.52198878)
(-46998.89 0 0.62655006)
(-47010.039 0 0.52226139)
(-47021.18 0 0.62687737)
(-47032.329 0 0.62704115)
(-47043.49 0 0.52267085)
(-47054.669 0 0.62736897)
(-47065.82 0 0.62753301)
(-47077.019 0 0.62769714)
(-47088.17 0 0.62786135)
(-47099.409 0 0.5233547)
(-47110.55 0 0.62819003)
(-47121.819 0 0.6283545)
(-47132.93 0 0.52376588)
(-47144.289 0 0.62868369)
(-47155.32 0 0.62884842)
(-47166.799 0 0.5241777)
(-47177.69 0 0.62917814)
(-47189.399 0 0.5244526)
(-47200.02 0 0.6295082)
(-47212.119 0 0.5247278)
(-47222.23 0 0.7348117)
(-47235.039 0 0.42000263)
(-47244.24 0 0.84022581)
(-47258.339 0 0.42022324)
(-47265.781 0 0.94575069)
(-47282.398 0 0.10511102)
(-47286.214 0 1.2616638)
(-47308.465 0 -0.47324832)
(-47301.536 0 2.1775148)
(-47341.96 0 -2.6094963)
(-47276.859 0 4.725694)
(-14587.83 0 -78920.865)
(-150569.51 0 -16426.16)
(-62477.464 0 -5677.5485)
(-21040.511 0 -4741.1485)
(-57739.456 0 3821.299)
(-27971.39 0 -2750.7823)
(-55307.93 0 2559.1586)
(-36450.114 0 -1708.2029)
(-51392.049 0 1362.8962)
(-40676.333 0 -969.30209)
(-48674.207 0 724.90287)
(-42842.173 0 -526.51373)
(-47139.772 0 389.2163)
(-44004.987 0 -283.95836)
(-46319.222 0 209.76038)
(-44639.916 0 -151.5874)
(-45888.281 0 113.46806)
(-44990.893 0 -80.351538)
(-45666.451 0 61.283436)
(-45188.889 0 -42.205753)
(-45556.881 0 33.169996)
(-45304.84 0 -22.118889)
(-45507.443 0 19.10748)
(-45376.767 0 -11.065007)
(-45490.523 0 11.06779)
(-45424.882 0 -5.0320795)
(-45490.712 0 6.0400151)
(-45460.29 0 -2.0138452)
(-45500.606 0 4.0287045)
(-45488.894 0 0)
(-45515.303 0 3.0230508)
(-45513.797 0 1.0079375)
(-45532.802 0 2.0163831)
(-45536.798 0 1.0084457)
(-45551.801 0 2.0174001)
(-45558.699 0 2.0179089)
(-45571.6 0 2.0184181)
(-45580.099 0 2.0189274)
(-45591.8 0 2.0194371)
(-45601.199 0 1.0099735)
(-45612.4 0 2.0204571)
(-45622.199 0 1.0104838)
(-45632.9 0 1.0107391)
(-45642.999 0 1.0109946)
(-45653.6 0 2.0225003)
(-45663.899 0 2.0230117)
(-45674.4 0 1.0117617)
(-45684.699 0 2.0240354)
(-45695.299 0 2.0245476)
(-45705.6 0 1.0125301)
(-45715.999 0 2.0255729)
(-45726.499 0 2.0260858)
(-45736.999 0 2.0265991)
(-45747.4 0 1.0135563)
(-45757.8 0 1.0138132)
(-45768.299 0 2.0281405)
(-45778.8 0 1.0143274)
(-45789.2 0 1.0145847)
(-45799.699 0 2.0296841)
(-45810.2 0 1.0150996)
(-45820.7 0 1.0153573)
(-45831.2 0 1.0156151)
(-45841.6 0 1.015873)
(-45852.099 0 2.0322622)
(-45862.699 0 2.0327785)
(-45873.199 0 2.0332952)
(-45883.699 0 2.0338121)
(-45894.299 0 2.0343293)
(-45904.8 0 1.0174234)
(-45915.299 0 2.0353645)
(-45925.899 0 2.0358824)
(-45936.4 0 1.0182003)
(-45946.899 0 2.0369192)
(-45957.499 0 2.0374379)
(-45968.099 0 2.037957)
(-45978.699 0 2.0384762)
(-45989.299 0 2.0389958)
(-45999.899 0 1.0197578)
(-46010.4 0 1.0200178)
(-46020.999 0 2.040556)
(-46031.6 0 1.0205383)
(-46042.199 0 2.0415976)
(-46052.899 0 2.0421187)
(-46063.499 0 1.02132)
(-46074.099 0 1.0215809)
(-46084.699 0 1.0218419)
(-46095.299 0 2.044206)
(-46105.999 0 2.0447284)
(-46116.699 0 2.0452512)
(-46127.299 0 2.0457742)
(-46137.999 0 2.0462975)
(-46148.6 0 1.0234105)
(-46159.299 0 2.0473448)
(-46170 0 1.0239345)
(-46180.599 0 2.0483933)
(-46191.399 0 2.0489179)
(-46202.099 0 1.0247214)
(-46212.699 0 1.024984)
(-46223.399 0 2.0504934)
(-46234.199 0 2.0510191)
(-46244.899 0 2.0515451)
(-46255.599 0 2.0520713)
(-46266.399 0 2.0525978)
(-46277.099 0 1.0265623)
(-46287.799 0 1.0268258)
(-46298.599 0 1.0270895)
(-46309.299 0 1.0273533)
(-46319.999 0 2.0552344)
(-46330.899 0 2.0557626)
(-46341.699 0 1.0281455)
(-46352.399 0 1.0284098)
(-46363.099 0 1.0286743)
(-46373.899 0 2.0578778)
(-46384.799 0 2.0584073)
(-46395.599 0 2.0589371)
(-46406.399 0 1.0297336)
(-46417.199 0 1.0299987)
(-46427.999 0 1.030264)
(-46438.799 0 1.0305294)
(-46449.599 0 2.06159)
(-46460.499 0 2.0621214)
(-46471.399 0 2.0626531)
(-46482.199 0 1.0315925)
(-46492.999 0 1.0318586)
(-46503.899 0 2.0642498)
(-46514.799 0 2.0647825)
(-46525.599 0 2.0653156)
(-46536.499 0 2.0658489)
(-46547.399 0 2.0663825)
(-46558.299 0 2.0669164)
(-46569.199 0 2.0674506)
(-46580.099 0 2.067985)
(-46590.999 0 2.0685197)
(-46601.899 0 2.0690547)
(-46612.899 0 2.06959)
(-46623.799 0 1.0350628)
(-46634.699 0 2.0706613)
(-46645.599 0 1.0355987)
(-46656.599 0 2.0717338)
(-46667.599 0 1.0361352)
(-46678.499 0 1.0364037)
(-46689.399 0 1.0366723)
(-46700.399 0 2.073882)
(-46711.399 0 1.0372099)
(-46722.399 0 2.0749579)
(-46733.399 0 1.0377481)
(-46744.299 0 1.0380174)
(-46755.299 0 2.0765737)
(-46766.399 0 2.0771128)
(-46777.399 0 1.0388261)
(-46788.399 0 2.078192)
(-46799.399 0 1.039366)
(-46810.399 0 2.0792723)
(-46821.499 0 2.0798128)
(-46832.499 0 2.0803537)
(-46843.599 0 2.0808948)
(-46854.699 0 1.0407181)
(-46865.669 0 1.0409889)
(-46876.719 0 1.6660159)
(-46887.819 0 1.5622966)
(-46898.899 0 1.5627035)
(-46909.989 0 1.667318)
(-46921.079 0 1.5635179)
(-46932.179 0 1.6681872)
(-46943.279 0 1.6686221)
(-46954.399 0 1.5647412)
(-46965.509 0 1.5651493)
(-46976.629 0 1.6699282)
(-46987.759 0 1.5659663)
(-46998.889 0 1.6708002)
(-47010.039 0 1.5667842)
(-47021.169 0 1.671673)
(-47032.339 0 1.5676029)
(-47043.489 0 1.5680125)
(-47054.659 0 1.6729839)
(-47065.819 0 1.6734214)
(-47077.019 0 1.673859)
(-47088.179 0 1.6742969)
(-47099.409 0 1.5700641)
(-47110.539 0 1.6751734)
(-47121.829 0 1.675612)
(-47132.929 0 1.5712976)
(-47144.279 0 1.5717092)
(-47155.33 0 1.6769291)
(-47166.799 0 1.5725331)
(-47177.69 0 1.6778084)
(-47189.399 0 1.5733578)
(-47200.02 0 1.6786885)
(-47212.109 0 1.4692378)
(-47222.24 0 1.7845427)
(-47235.029 0 1.3650085)
(-47244.24 0 1.8905081)
(-47258.329 0 1.3657255)
(-47265.811 0 2.1016682)
(-47282.368 0 0.94599921)
(-47286.269 0 2.5233276)
(-47308.378 0 0.15774944)
(-47301.739 0 3.8185404)
(-47341.718 0 -3.6196238)
(-47277.06 0 7.8936982)
(-10389.997 0 -128455.06)
(-146085.22 0 -21150.932)
(-61653.281 0 -16510.319)
(-20379.829 0 -22.019267)
(-57710.438 0 334.37617)
(-27973.412 0 107.14733)
(-55306.552 0 738.19957)
(-36477.187 0 -251.47151)
(-51381.662 0 351.74746)
(-40689.921 0 -210.49994)
(-48665.915 0 175.46058)
(-42848.868 0 -122.35176)
(-47134.976 0 94.294671)
(-44008.583 0 -65.220118)
(-46316.524 0 52.189186)
(-44641.814 0 -33.128372)
(-45886.882 0 29.120121)
(-44991.892 0 -17.074702)
(-45665.751 0 17.07899)
(-45189.488 0 -8.0391911)
(-45556.481 0 10.051514)
(-45305.139 0 -3.0162121)
(-45507.243 0 6.0339409)
(-45376.867 0 -1.0059097)
(-45490.323 0 5.0308137)
(-45424.982 0 1.0064159)
(-45490.712 0 4.0266767)
(-45460.29 0 1.0069226)
(-45500.506 0 3.0215284)
(-45488.894 0 2.0148596)
(-45515.303 0 3.0230508)
(-45513.897 0 2.015875)
(-45532.801 0 3.0245747)
(-45536.798 0 2.0168915)
(-45551.8 0 3.0261001)
(-45558.699 0 2.0179089)
(-45571.6 0 2.0184181)
(-45580.099 0 2.0189275)
(-45591.9 0 2.0194371)
(-45601.199 0 2.019947)
(-45612.3 0 2.0204571)
(-45622.199 0 3.0314513)
(-45632.899 0 3.0322173)
(-45642.999 0 3.0329837)
(-45653.599 0 2.0225003)
(-45663.899 0 2.0230118)
(-45674.399 0 3.0352852)
(-45684.699 0 2.0240354)
(-45695.299 0 2.0245477)
(-45705.599 0 3.0375902)
(-45715.999 0 2.0255729)
(-45726.499 0 2.0260859)
(-45736.999 0 2.0265991)
(-45747.399 0 3.040669)
(-45757.799 0 3.0414396)
(-45768.299 0 2.0281405)
(-45778.799 0 3.0429821)
(-45789.199 0 3.043754)
(-45799.699 0 2.0296841)
(-45810.199 0 3.0452988)
(-45820.699 0 3.0460718)
(-45831.199 0 3.0468452)
(-45841.599 0 3.0476191)
(-45852.099 0 2.0322622)
(-45862.699 0 2.0327786)
(-45873.199 0 2.0332952)
(-45883.699 0 2.0338121)
(-45894.299 0 2.0343293)
(-45904.799 0 3.0522701)
(-45915.299 0 2.0353645)
(-45925.899 0 3.0538237)
(-45936.399 0 3.054601)
(-45946.899 0 2.0369191)
(-45957.499 0 2.0374379)
(-45968.099 0 2.0379569)
(-45978.699 0 2.0384762)
(-45989.299 0 2.0389958)
(-45999.899 0 3.0592734)
(-46010.399 0 3.0600536)
(-46020.999 0 2.040556)
(-46031.599 0 3.061615)
(-46042.199 0 2.0415976)
(-46052.899 0 2.0421187)
(-46063.499 0 3.0639602)
(-46074.099 0 3.0647427)
(-46084.699 0 3.0655256)
(-46095.299 0 2.0442059)
(-46105.999 0 2.0447284)
(-46116.699 0 2.0452512)
(-46127.299 0 3.0686613)
(-46137.999 0 2.0462975)
(-46148.599 0 3.0702315)
(-46159.299 0 2.0473448)
(-46169.999 0 3.0718034)
(-46180.599 0 2.0483933)
(-46191.399 0 2.0489179)
(-46202.099 0 3.0741642)
(-46212.699 0 3.074952)
(-46223.399 0 2.0504934)
(-46234.199 0 2.0510191)
(-46244.899 0 2.0515451)
(-46255.599 0 2.0520713)
(-46266.399 0 2.0525978)
(-46277.099 0 3.0796869)
(-46287.799 0 3.0804775)
(-46298.599 0 3.0812685)
(-46309.299 0 3.0820598)
(-46319.999 0 2.0552344)
(-46330.899 0 2.0557625)
(-46341.699 0 3.0844365)
(-46352.399 0 3.0852295)
(-46363.099 0 3.0860229)
(-46373.899 0 2.0578778)
(-46384.799 0 2.0584073)
(-46395.599 0 2.0589371)
(-46406.399 0 3.0892007)
(-46417.199 0 3.0899961)
(-46427.999 0 3.090792)
(-46438.799 0 3.0915883)
(-46449.599 0 2.06159)
(-46460.499 0 2.0621214)
(-46471.399 0 2.0626531)
(-46482.199 0 3.0947776)
(-46492.999 0 3.0955759)
(-46503.899 0 2.0642498)
(-46514.799 0 3.0971738)
(-46525.599 0 3.0979734)
(-46536.499 0 2.0658489)
(-46547.399 0 2.0663825)
(-46558.299 0 2.0669164)
(-46569.199 0 2.0674506)
(-46580.099 0 2.067985)
(-46590.999 0 2.0685197)
(-46601.899 0 2.0690547)
(-46612.899 0 2.06959)
(-46623.799 0 3.1051882)
(-46634.699 0 3.105992)
(-46645.599 0 3.1067961)
(-46656.599 0 2.0717338)
(-46667.599 0 3.1084056)
(-46678.499 0 3.109211)
(-46689.399 0 3.1100168)
(-46700.399 0 2.073882)
(-46711.399 0 3.1116297)
(-46722.399 0 2.0749579)
(-46733.399 0 3.1132443)
(-46744.299 0 3.1140522)
(-46755.299 0 2.0765737)
(-46766.399 0 2.0771128)
(-46777.399 0 3.1164784)
(-46788.399 0 2.078192)
(-46799.399 0 3.118098)
(-46810.399 0 2.0792723)
(-46821.499 0 2.0798128)
(-46832.499 0 2.0803537)
(-46843.599 0 2.0808948)
(-46854.699 0 3.1221543)
(-46865.669 0 3.1229668)
(-46876.719 0 2.6031498)
(-46887.829 0 2.6038276)
(-46898.899 0 2.5003256)
(-46909.989 0 2.6051843)
(-46921.079 0 2.5016287)
(-46932.169 0 2.6065424)
(-46943.289 0 2.607222)
(-46954.399 0 2.5035859)
(-46965.499 0 2.6085822)
(-46976.629 0 2.6092629)
(-46987.759 0 2.6099439)
(-46998.889 0 2.6106252)
(-47010.039 0 2.611307)
(-47021.179 0 2.611989)
(-47032.339 0 2.6126715)
(-47043.479 0 2.6133542)
(-47054.659 0 2.6140374)
(-47065.819 0 2.6147209)
(-47077.019 0 2.6154047)
(-47088.179 0 2.6160889)
(-47099.409 0 2.6167735)
(-47110.539 0 2.6174584)
(-47121.829 0 2.6181437)
(-47132.939 0 2.6188294)
(-47144.279 0 2.5147348)
(-47155.319 0 2.6202018)
(-47166.799 0 2.6208885)
(-47177.689 0 2.6215756)
(-47189.399 0 2.622263)
(-47200.03 0 2.6229508)
(-47212.109 0 2.5186934)
(-47222.24 0 2.6243275)
(-47235.029 0 2.5200158)
(-47244.24 0 2.6257057)
(-47258.318 0 2.5213395)
(-47265.821 0 2.7321687)
(-47282.358 0 2.4175535)
(-47286.289 0 2.9438822)
(-47308.342 0 1.9245432)
(-47301.895 0 3.6502301)
(-47341.573 0 -1.7256346)
(-47277.265 0 6.85173)
(-3872.1665 0 -182271.78)
(-139376.68 0 -28650.744)
(-60367.326 0 -24180.113)
(-19356.73 0 1271.1122)
(-57726.699 0 -432.48655)
(-27930.941 0 896.23232)
(-55343.75 0 487.79266)
(-36488.673 0 54.10144)
(-51387.963 0 192.40887)
(-40693.918 0 -74.176168)
(-48665.416 0 84.22108)
(-42850.267 0 -53.152814)
(-47134.076 0 45.141066)
(-44009.183 0 -27.091434)
(-46316.025 0 26.094593)
(-44642.214 0 -13.050571)
(-45886.682 0 16.066273)
(-44992.092 0 -6.0263654)
(-45665.551 0 10.046465)
(-45189.588 0 -1.0048989)
(-45556.381 0 7.0360598)
(-45305.239 0 1.005404)
(-45507.243 0 5.0282841)
(-45376.867 0 2.0118194)
(-45490.323 0 4.024651)
(-45424.982 0 3.0192477)
(-45490.712 0 4.0266767)
(-45460.39 0 3.0207678)
(-45500.506 0 4.0287045)
(-45488.894 0 3.0222894)
(-45515.303 0 3.0230508)
(-45513.797 0 3.0238125)
(-45532.801 0 4.0327662)
(-45536.798 0 3.0253372)
(-45551.8 0 4.0348002)
(-45558.798 0 3.0268634)
(-45571.6 0 3.0276271)
(-45580.099 0 3.0283912)
(-45591.8 0 3.0291556)
(-45601.199 0 4.039894)
(-45612.299 0 3.0306857)
(-45622.099 0 4.0419351)
(-45632.899 0 4.0429564)
(-45643.099 0 4.0439783)
(-45653.699 0 3.0337505)
(-45663.799 0 3.0345176)
(-45674.399 0 4.0470469)
(-45684.799 0 3.0360531)
(-45695.199 0 3.0368215)
(-45705.599 0 4.0501202)
(-45716.099 0 3.0383593)
(-45726.499 0 3.0391288)
(-45736.899 0 3.0398987)
(-45747.299 0 4.0542253)
(-45757.899 0 4.0552528)
(-45768.299 0 3.0422107)
(-45778.699 0 4.0573095)
(-45789.299 0 4.0583386)
(-45799.699 0 3.0445262)
(-45810.099 0 4.0603984)
(-45820.699 0 4.0614291)
(-45831.199 0 4.0624603)
(-45841.699 0 4.0634921)
(-45852.199 0 3.0483932)
(-45862.699 0 3.0491678)
(-45873.199 0 3.0499428)
(-45883.699 0 3.0507182)
(-45894.199 0 3.051494)
(-45904.799 0 4.0696935)
(-45915.299 0 3.0530467)
(-45925.799 0 4.0717648)
(-45936.499 0 4.0728013)
(-45946.999 0 3.0553787)
(-45957.499 0 3.0561569)
(-45968.099 0 3.0569354)
(-45978.699 0 3.0577144)
(-45989.199 0 3.0584937)
(-45999.799 0 4.0790312)
(-46010.499 0 4.0800714)
(-46020.999 0 3.0608341)
(-46031.599 0 4.0821533)
(-46042.299 0 3.0623963)
(-46052.799 0 3.0631781)
(-46063.399 0 4.0852802)
(-46074.099 0 4.0863236)
(-46084.799 0 4.0873675)
(-46095.399 0 3.0663089)
(-46105.999 0 3.0670926)
(-46116.599 0 3.0678768)
(-46127.299 0 4.0915484)
(-46137.999 0 3.0694462)
(-46148.599 0 4.0936421)
(-46159.299 0 3.0710173)
(-46169.999 0 4.0957379)
(-46180.699 0 3.0725899)
(-46191.299 0 3.0733769)
(-46201.999 0 4.0988856)
(-46212.799 0 4.0999359)
(-46223.499 0 3.0757401)
(-46234.199 0 3.0765286)
(-46244.899 0 4.1030901)
(-46255.599 0 3.078107)
(-46266.299 0 3.0788967)
(-46276.999 0 4.1062492)
(-46287.799 0 4.1073033)
(-46298.599 0 4.1083579)
(-46309.399 0 4.1094131)
(-46320.099 0 3.0828516)
(-46330.799 0 3.0836438)
(-46341.599 0 4.1125819)
(-46352.399 0 4.1136393)
(-46363.199 0 4.1146972)
(-46373.999 0 3.0868167)
(-46384.799 0 3.087611)
(-46395.499 0 3.0884056)
(-46406.299 0 4.1189342)
(-46417.199 0 4.1199948)
(-46427.999 0 4.121056)
(-46438.899 0 4.1221177)
(-46449.699 0 3.092385)
(-46460.499 0 3.0931821)
(-46471.299 0 3.0939796)
(-46482.099 0 4.1263701)
(-46493.099 0 4.1274345)
(-46503.899 0 3.0963747)
(-46514.699 0 4.1295651)
(-46525.699 0 4.1306312)
(-46536.599 0 3.0987734)
(-46547.399 0 3.0995738)
(-46558.299 0 3.1003746)
(-46569.199 0 3.1011759)
(-46580.099 0 3.1019775)
(-46590.999 0 3.1027796)
(-46601.899 0 3.1035821)
(-46612.799 0 3.1043849)
(-46623.699 0 4.140251)
(-46634.699 0 4.1413226)
(-46645.699 0 4.1423948)
(-46656.599 0 3.1076007)
(-46667.499 0 4.1445409)
(-46678.499 0 4.1456147)
(-46689.499 0 4.1466891)
(-46700.399 0 3.1108231)
(-46711.399 0 4.1488396)
(-46722.399 0 3.1124368)
(-46733.299 0 4.1509923)
(-46744.399 0 4.1520695)
(-46755.399 0 3.1148605)
(-46766.299 0 3.1156692)
(-46777.399 0 4.1553045)
(-46788.399 0 3.117288)
(-46799.399 0 4.157464)
(-46810.499 0 3.1189084)
(-46821.499 0 3.1197192)
(-46832.499 0 3.1205305)
(-46843.499 0 3.1213422)
(-46854.599 0 4.1628724)
(-46865.719 0 4.1639558)
(-46876.769 0 3.6444097)
(-46887.829 0 3.7495118)
(-46898.899 0 3.7504884)
(-46909.989 0 3.647258)
(-46921.079 0 3.752443)
(-46932.169 0 3.6491594)
(-46943.289 0 3.6501108)
(-46954.399 0 3.7553788)
(-46965.499 0 3.7563584)
(-46976.629 0 3.652968)
(-46987.759 0 3.7583192)
(-46998.889 0 3.6548753)
(-47010.039 0 3.6558297)
(-47021.169 0 3.6567846)
(-47032.339 0 3.7622469)
(-47043.489 0 3.7632301)
(-47054.659 0 3.6596523)
(-47065.819 0 3.6606092)
(-47077.019 0 3.6615666)
(-47088.179 0 3.6625245)
(-47099.409 0 3.7681539)
(-47110.539 0 3.6644418)
(-47121.829 0 3.6654012)
(-47132.939 0 3.7711143)
(-47144.279 0 3.7721022)
(-47155.319 0 3.6682825)
(-47166.799 0 3.6692439)
(-47177.689 0 3.6702058)
(-47189.399 0 3.6711682)
(-47200.029 0 3.7770492)
(-47212.109 0 3.7780401)
(-47222.24 0 3.7790316)
(-47235.029 0 3.675023)
(-47244.24 0 3.6759879)
(-47258.318 0 3.6769534)
(-47265.82 0 3.7830028)
(-47282.347 0 3.6788858)
(-47286.316 0 3.9952688)
(-47308.311 0 3.007756)
(-47302.086 0 4.7442472)
(-47341.414 0 -1.6940681)
(-47277.546 0 8.7462176)
(4950.9978 0 -236838.6)
(-130278.36 0 -36494.686)
(-58664.822 0 -30374.984)
(-18006.142 0 1530.339)
(-57748.005 0 -284.31986)
(-27881.398 0 1019.4017)
(-55390.609 0 736.19632)
(-36506.682 0 -8.0150282)
(-51394.443 0 302.64312)
(-40700.73 0 -136.32377)
(-48663.806 0 137.36057)
(-42852.773 0 -89.256613)
(-47132.371 0 73.22884)
(-44010.486 0 -47.159162)
(-46315.122 0 41.149166)
(-44642.816 0 -23.089472)
(-45886.18 0 24.09941)
(-44992.493 0 -10.043942)
(-45665.25 0 15.069697)
(-45189.788 0 -4.0195955)
(-45556.28 0 10.051514)
(-45305.339 0 0)
(-45507.143 0 8.0452546)
(-45376.967 0 2.0118194)
(-45490.223 0 6.0369765)
(-45424.982 0 4.0256636)
(-45490.712 0 5.0333459)
(-45460.29 0 4.0276904)
(-45500.506 0 5.0358807)
(-45488.994 0 4.0297192)
(-45515.303 0 5.0384179)
(-45513.796 0 5.0396875)
(-45532.801 0 4.0327662)
(-45536.798 0 5.0422287)
(-45551.8 0 4.0348002)
(-45558.798 0 5.0447724)
(-45571.6 0 5.0460452)
(-45580.099 0 5.0473186)
(-45591.799 0 5.0485927)
(-45601.199 0 4.039894)
(-45612.299 0 5.0511428)
(-45622.099 0 4.0419351)
(-45632.899 0 4.0429564)
(-45643.099 0 4.0439783)
(-45653.699 0 5.0562508)
(-45663.799 0 5.0575294)
(-45674.399 0 4.0470469)
(-45684.799 0 5.0600886)
(-45695.199 0 5.0613691)
(-45705.599 0 4.0501202)
(-45716.099 0 5.0639321)
(-45726.499 0 5.0652146)
(-45736.899 0 5.0664978)
(-45747.299 0 4.0542253)
(-45757.899 0 4.0552528)
(-45768.299 0 5.0703511)
(-45778.699 0 4.0573095)
(-45789.299 0 4.0583386)
(-45799.699 0 5.0742103)
(-45810.099 0 4.0603984)
(-45820.699 0 4.0614291)
(-45831.199 0 4.0624603)
(-45841.699 0 4.0634921)
(-45852.199 0 5.0806554)
(-45862.699 0 5.0819464)
(-45873.199 0 5.083238)
(-45883.699 0 5.0845303)
(-45894.199 0 5.0858233)
(-45904.799 0 4.0696935)
(-45915.299 0 5.0884111)
(-45925.799 0 4.0717649)
(-45936.499 0 4.0728013)
(-45946.999 0 5.0922979)
(-45957.499 0 5.0935948)
(-45968.099 0 5.0948924)
(-45978.699 0 5.0961906)
(-45989.199 0 5.0974895)
(-45999.799 0 4.0790312)
(-46010.499 0 4.0800714)
(-46020.999 0 5.1013901)
(-46031.599 0 4.0821533)
(-46042.299 0 5.1039939)
(-46052.799 0 5.1052967)
(-46063.399 0 4.0852802)
(-46074.099 0 4.0863236)
(-46084.799 0 4.0873675)
(-46095.399 0 5.1105149)
(-46105.999 0 5.1118211)
(-46116.599 0 5.113128)
(-46127.299 0 4.0915484)
(-46137.999 0 5.1157437)
(-46148.599 0 4.0936421)
(-46159.299 0 5.1183621)
(-46169.999 0 4.0957379)
(-46180.699 0 5.1209832)
(-46191.299 0 5.1222948)
(-46201.999 0 4.0988856)
(-46212.799 0 4.0999359)
(-46223.499 0 5.1262335)
(-46234.099 0 5.1275478)
(-46244.899 0 5.1288627)
(-46255.699 0 5.1301783)
(-46266.299 0 5.1314945)
(-46276.999 0 4.1062492)
(-46287.799 0 4.1073033)
(-46298.599 0 4.1083579)
(-46309.399 0 4.1094131)
(-46320.099 0 5.1380861)
(-46330.799 0 5.1394064)
(-46341.599 0 4.1125819)
(-46352.399 0 4.1136393)
(-46363.199 0 4.1146972)
(-46373.999 0 5.1446945)
(-46384.799 0 5.1460183)
(-46395.499 0 5.1473427)
(-46406.299 0 4.1189342)
(-46417.199 0 4.1199949)
(-46427.999 0 4.121056)
(-46438.899 0 4.1221177)
(-46449.699 0 5.153975)
(-46460.499 0 5.1553035)
(-46471.299 0 5.1566327)
(-46482.099 0 4.1263701)
(-46493.099 0 4.1274345)
(-46503.899 0 5.1606244)
(-46514.699 0 4.1295651)
(-46525.699 0 4.1306312)
(-46536.599 0 5.1646223)
(-46547.399 0 5.1659564)
(-46558.299 0 5.1672911)
(-46569.199 0 5.1686264)
(-46580.099 0 5.1699625)
(-46590.999 0 5.1712993)
(-46601.899 0 5.1726368)
(-46612.799 0 5.1739749)
(-46623.699 0 4.140251)
(-46634.699 0 4.1413226)
(-46645.699 0 4.1423948)
(-46656.599 0 5.1793345)
(-46667.499 0 4.1445409)
(-46678.499 0 4.1456147)
(-46689.499 0 5.1833614)
(-46700.399 0 5.1847051)
(-46711.399 0 4.1488396)
(-46722.399 0 5.1873946)
(-46733.299 0 5.1887404)
(-46744.399 0 4.1520695)
(-46755.399 0 5.1914341)
(-46766.299 0 5.192782)
(-46777.399 0 4.1553045)
(-46788.399 0 5.1954799)
(-46799.399 0 4.1574639)
(-46810.499 0 5.1981806)
(-46821.499 0 5.199532)
(-46832.499 0 5.2008841)
(-46843.499 0 5.202237)
(-46854.599 0 4.1628724)
(-46865.719 0 4.1639558)
(-46876.759 0 4.7897957)
(-46887.819 0 4.7910428)
(-46898.909 0 4.7922907)
(-46909.989 0 4.6893318)
(-46921.079 0 4.7947883)
(-46932.179 0 4.6917764)
(-46943.279 0 4.6929996)
(-46954.389 0 4.7985396)
(-46965.509 0 4.7997913)
(-46976.629 0 4.6966732)
(-46987.759 0 4.8022968)
(-46998.899 0 4.6991254)
(-47010.039 0 4.8048048)
(-47021.169 0 4.8060598)
(-47032.329 0 4.7028086)
(-47043.489 0 4.8085718)
(-47054.669 0 4.7052673)
(-47065.819 0 4.7064976)
(-47077.019 0 4.7077285)
(-47088.169 0 4.7089601)
(-47099.409 0 4.8148633)
(-47110.549 0 4.8161235)
(-47121.819 0 4.7126587)
(-47132.929 0 4.8186461)
(-47144.289 0 4.8199083)
(-47155.329 0 4.7163632)
(-47166.799 0 4.8224348)
(-47177.689 0 4.718836)
(-47189.389 0 4.7200734)
(-47200.019 0 4.8262295)
(-47212.109 0 4.8274957)
(-47222.249 0 4.8287626)
(-47235.038 0 4.8300302)
(-47244.24 0 4.8312984)
(-47258.308 0 4.7275115)
(-47265.82 0 4.9389203)
(-47282.337 0 4.624885)
(-47286.352 0 5.1517939)
(-47308.271 0 3.8490864)
(-47302.342 0 6.1959237)
(-47341.194 0 -2.2201762)
(-47277.933 0 11.50375)
(16134.686 0 -292460.56)
(-118733.26 0 -43731.399)
(-56569.391 0 -36150.594)
(-16349.089 0 1961.7165)
(-57777.803 0 -117.13177)
(-27828.943 0 1184.6289)
(-55446.258 0 956.5544)
(-36531.993 0 -51.095805)
(-51400.719 0 394.83903)
(-40710.444 0 -188.44756)
(-48660.694 0 182.47901)
(-42856.682 0 -119.34311)
(-47129.865 0 98.30721)
(-44012.391 0 -63.213345)
(-46313.618 0 55.2001)
(-44643.918 0 -31.120592)
(-45885.378 0 32.132547)
(-44992.994 0 -14.061519)
(-45664.949 0 20.09293)
(-45190.089 0 -6.0293933)
(-45555.98 0 14.07212)
(-45305.439 0 0)
(-45507.042 0 10.056568)
(-45377.067 0 3.0177292)
(-45490.122 0 8.049302)
(-45425.082 0 4.0256636)
(-45490.711 0 7.0466843)
(-45460.389 0 5.034613)
(-45500.506 0 6.0430568)
(-45488.894 0 5.037149)
(-45515.202 0 6.0461015)
(-45513.896 0 6.0476251)
(-45532.801 0 6.0491493)
(-45536.797 0 6.0506744)
(-45551.8 0 5.0435002)
(-45558.698 0 6.0537268)
(-45571.599 0 6.0552542)
(-45580.098 0 6.0567823)
(-45591.899 0 6.0583112)
(-45601.199 0 5.0498674)
(-45612.299 0 6.0613714)
(-45622.199 0 5.0524189)
(-45632.899 0 5.0536955)
(-45642.999 0 5.0549728)
(-45653.599 0 6.067501)
(-45663.899 0 6.0690353)
(-45674.399 0 5.0588087)
(-45684.699 0 6.0721063)
(-45695.299 0 6.0736429)
(-45705.599 0 5.0626503)
(-45715.999 0 6.0767186)
(-45726.499 0 6.0782576)
(-45736.999 0 6.0797973)
(-45747.399 0 5.0677816)
(-45757.799 0 5.069066)
(-45768.299 0 6.0844213)
(-45778.799 0 5.0716369)
(-45789.199 0 5.0729233)
(-45799.699 0 6.0890524)
(-45810.199 0 5.075498)
(-45820.699 0 5.0767864)
(-45831.199 0 6.0936905)
(-45841.599 0 5.0793651)
(-45852.099 0 6.0967865)
(-45862.699 0 6.0983357)
(-45873.199 0 6.0998856)
(-45883.699 0 6.1014364)
(-45894.299 0 6.1029879)
(-45904.799 0 5.0871169)
(-45915.299 0 6.1060934)
(-45925.899 0 5.0897061)
(-45936.399 0 5.0910016)
(-45946.899 0 6.1107575)
(-45957.499 0 6.1123138)
(-45968.099 0 6.1138709)
(-45978.699 0 6.1154287)
(-45989.299 0 6.1169874)
(-45999.899 0 5.098789)
(-46010.399 0 6.1201071)
(-46020.999 0 6.1216682)
(-46031.599 0 5.1026917)
(-46042.199 0 6.1247927)
(-46052.899 0 6.1263561)
(-46063.499 0 5.1066003)
(-46074.099 0 5.1079045)
(-46084.699 0 5.1092093)
(-46095.299 0 6.1326179)
(-46105.999 0 6.1341853)
(-46116.699 0 6.1357536)
(-46127.299 0 5.1144355)
(-46137.999 0 6.1388924)
(-46148.599 0 5.1170526)
(-46159.299 0 6.1420346)
(-46169.999 0 5.1196723)
(-46180.599 0 6.1451799)
(-46191.399 0 6.1467537)
(-46202.099 0 5.123607)
(-46212.699 0 5.1249199)
(-46223.399 0 6.1514802)
(-46234.199 0 6.1530573)
(-46244.899 0 5.1288627)
(-46255.599 0 6.1562139)
(-46266.399 0 6.1577935)
(-46277.099 0 5.1328115)
(-46287.799 0 5.1341291)
(-46298.599 0 5.1354474)
(-46309.299 0 5.1367664)
(-46319.999 0 6.1657033)
(-46330.899 0 6.1672877)
(-46341.699 0 5.1407274)
(-46352.399 0 5.1420491)
(-46363.099 0 5.1433715)
(-46373.899 0 6.1736334)
(-46384.799 0 6.1752219)
(-46395.599 0 6.1768112)
(-46406.399 0 5.1486678)
(-46417.199 0 5.1499936)
(-46427.999 0 5.15132)
(-46438.799 0 5.1526472)
(-46449.599 0 6.18477)
(-46460.499 0 6.1863642)
(-46471.399 0 6.1879593)
(-46482.199 0 5.1579626)
(-46492.999 0 5.1592932)
(-46503.899 0 6.1927493)
(-46514.799 0 5.1619564)
(-46525.599 0 5.163289)
(-46536.499 0 6.1975468)
(-46547.399 0 6.1991476)
(-46558.299 0 6.2007493)
(-46569.199 0 6.2023517)
(-46580.099 0 6.203955)
(-46590.999 0 6.2055591)
(-46601.899 0 6.2071641)
(-46612.899 0 6.2087699)
(-46623.799 0 5.1753138)
(-46634.699 0 5.1766533)
(-46645.599 0 5.1779935)
(-46656.599 0 6.2152013)
(-46667.599 0 5.1806761)
(-46678.399 0 5.1820184)
(-46689.399 0 6.2200337)
(-46700.499 0 6.2216461)
(-46711.399 0 5.1860495)
(-46722.299 0 6.2248736)
(-46733.399 0 6.2264885)
(-46744.399 0 5.1900869)
(-46755.299 0 6.229721)
(-46766.399 0 6.2313384)
(-46777.399 0 5.1941306)
(-46788.399 0 6.2345759)
(-46799.399 0 5.1968299)
(-46810.399 0 6.2378168)
(-46821.499 0 6.2394385)
(-46832.499 0 6.241061)
(-46843.599 0 6.2426844)
(-46854.699 0 5.2035905)
(-46865.659 0 5.2049447)
(-46876.709 0 5.8310556)
(-46887.829 0 5.7284208)
(-46898.909 0 5.7299127)
(-46909.989 0 5.8356129)
(-46921.079 0 5.732899)
(-46932.179 0 5.838655)
(-46943.279 0 5.8401773)
(-46954.389 0 5.7373843)
(-46965.509 0 5.7388809)
(-46976.629 0 5.8447489)
(-46987.759 0 5.7418765)
(-46998.889 0 5.8478005)
(-47010.029 0 5.8493276)
(-47021.179 0 5.8508554)
(-47032.339 0 5.8523841)
(-47043.489 0 5.7493793)
(-47054.669 0 5.8554437)
(-47065.819 0 5.8569748)
(-47077.019 0 5.8585066)
(-47088.169 0 5.8600392)
(-47099.399 0 5.7569017)
(-47110.549 0 5.8631069)
(-47121.829 0 5.864642)
(-47132.929 0 5.8661778)
(-47144.289 0 5.7629339)
(-47155.319 0 5.8692519)
(-47166.799 0 5.8707902)
(-47177.699 0 5.8723293)
(-47189.389 0 5.8738691)
(-47200.019 0 5.8754098)
(-47212.108 0 5.7720058)
(-47222.239 0 5.8784936)
(-47235.028 0 5.8800368)
(-47244.249 0 5.9866089)
(-47258.308 0 5.7780696)
(-47265.83 0 5.9897544)
(-47282.327 0 5.5708842)
(-47286.389 0 6.3083191)
(-47308.212 0 4.7219666)
(-47302.662 0 7.6055227)
(-47340.911 0 -2.6621071)
(-47278.427 0 14.187607)
(29789.589 0 -349891.74)
(-104650.8 0 -50252.845)
(-54100.899 0 -41507.942)
(-14404.446 0 2642.312)