/*--------------------------------*- C++ -*----------------------------------*\
  =========                 |
  \\      /  F ield         | OpenFOAM: The Open Source CFD Toolbox
   \\    /   O peration     | Website:  https://openfoam.org
    \\  /    A nd           | Version:  6
     \\/     M anipulation  |
\*---------------------------------------------------------------------------*/
FoamFile
{
    version     2.0;
    format      ascii;
    class       volVectorField;
    location    "10000";
    object      grad(p);
}
// * * * * * * * * * * * * * * * * * * * * * * * * * * * * * * * * * * * * * //

dimensions      [0 1 -2 0 0 0 0];

internalField   nonuniform List<vector> 
22500
(
(-237132.84 3.2370416e-13 -14265.238)
(-444488.08 -3.2325104e-13 -7335.3668)
(-395498.05 0 -10058.338)
(-367102.95 -3.2248416e-13 -10538.73)
(-348975.43 3.2214027e-13 -9856.4785)
(-331252.9 0 -9136.6751)
(-314475.37 -3.2150545e-13 -8386.8171)
(-299332.83 3.2121267e-13 -7584.3961)
(-285862.8 -3.209341e-13 -6751.913)
(-274012.76 0 -5941.8816)
(-263700.23 3.204129e-13 -5176.8119)
(-254827.69 3.2016719e-13 -4464.2113)
(-247252.67 0 -3819.0913)
(-240832.64 3.1969868e-13 -3241.4587)
(-235440.12 0 -2731.3201)
(-230940.1 0 -2288.6825)
(-227212.58 0 -1906.0483)
(-224137.57 0 -1575.9193)
(-221625.06 0 -1298.3006)
(-219585.05 0 -1058.1878)
(-217935.04 0 -863.08978)
(-216622.53 0 -698.00023)
(-215587.52 3.1779028e-13 -555.41656)
(-214762.52 0 -435.34102)
(-214132.51 0 -345.28198)
(-213660.01 0 -262.72331)
(-213300.01 0 -202.67903)
(-213037.51 0 -150.13763)
(-212857.51 0 -112.60698)
(-212745 0 -75.073823)
(-212685 -3.1617808e-13 -52.553429)
(-212655 3.1597734e-13 -22.52365)
(-212655 3.1577659e-13 -15.016268)
(-212677.5 -3.1557581e-13 0)
(-212715 3.1537499e-13 7.5086349)
(-212775 -3.151741e-13 15.017771)
(-212835 3.1497313e-13 22.527408)
(-212895 -3.147721e-13 30.037547)
(-212962.5 0 30.038549)
(-213030 -3.1436977e-13 30.039552)
(-213097.5 3.1416849e-13 30.040555)
(-213165 -3.1396712e-13 30.041557)
(-213225 0 30.04256)
(-213285 3.1356417e-13 30.043563)
(-213337.5 -3.1336258e-13 30.044566)
(-213397.5 -3.1316093e-13 22.534177)
(-213450 3.1295921e-13 30.046572)
(-213487.5 0 22.535682)
(-213532.5 -3.1255558e-13 22.536434)
(-213577.5 3.1235369e-13 15.024791)
(-213615 0 22.537939)
(-213645 0 15.025794)
(-213675 -3.117477e-13 15.026296)
(-213705 0 15.026798)
(-213727.5 -3.1134349e-13 15.0273)
(-213750 3.1114134e-13 7.5139007)
(-213780 -3.1093914e-13 7.5141517)
(-213802.5 0 7.5144026)
(-213810 3.1053464e-13 15.029307)
(-213825 -3.1033235e-13 7.5149046)
(-213847.5 -3.1013002e-13 7.5151556)
(-213862.5 0 7.5154066)
(-213877.5 -3.0972529e-13 7.5156576)
(-213885 -3.0952288e-13 7.5159087)
(-213892.5 -3.0932046e-13 7.5161597)
(-213907.5 0 7.5164108)
(-213915 -3.0891552e-13 7.5166619)
(-213922.5 -3.0871303e-13 7.516913)
(-213930 -3.0851051e-13 7.5171641)
(-213937.5 3.0830796e-13 0)
(-213945 -3.081054e-13 0)
(-213952.5 -3.0790282e-13 0)
(-213960 -3.0770021e-13 0)
(-213967.5 0 0)
(-213975 -3.0729494e-13 0)
(-213975 -3.0709229e-13 7.5189226)
(-213982.5 0 0)
(-213990 -3.0668691e-13 7.5194252)
(-213990 -3.0648419e-13 7.5196765)
(-213990 -3.0628146e-13 0)
(-213997.5 0 0)
(-214005 -3.0587594e-13 0)
(-214012.5 -3.0567315e-13 0)
(-214020 -3.0547033e-13 0)
(-214020 0 7.5211847)
(-214020 -3.0506468e-13 7.5214361)
(-214020 -3.0486181e-13 0)
(-214027.5 -3.0465894e-13 0)
(-214035 0 0)
(-214042.5 -3.0425313e-13 0)
(-214042.5 0 7.5226935)
(-214042.5 0 0)
(-214050 -3.0364428e-13 0)
(-214050 -3.034413e-13 0)
(-214057.5 -3.0323831e-13 0)
(-214065 0 0)
(-214065 -3.0283226e-13 7.5242029)
(-214065 -3.0262921e-13 7.5244545)
(-214065 -3.0242613e-13 0)
(-214072.5 0 0)
(-214080 -3.0201996e-13 0)
(-214087.5 -3.0181683e-13 0)
(-214087.5 -3.0161369e-13 7.5257129)
(-214087.5 0 0)
(-214095 -3.0120736e-13 0)
(-214095 -3.0100417e-13 0)
(-214102.5 0 0)
(-214102.5 -3.0059775e-13 7.5269717)
(-214102.5 -3.0039451e-13 0)
(-214110 -3.0019126e-13 0)
(-214117.5 2.9998798e-13 0)
(-214125 -2.9978468e-13 0)
(-214117.5 -2.9958138e-13 7.5282309)
(-214125 -2.9937806e-13 0)
(-214132.5 0 7.5287346)
(-214132.5 -2.9897135e-13 0)
(-214140 -2.9876797e-13 7.5292386)
(-214140 -2.9856457e-13 7.5294905)
(-214140 0 7.5297425)
(-214147.5 -2.9815773e-13 0)
(-214155 -2.9795429e-13 7.5302465)
(-214155 -2.9775083e-13 7.5304985)
(-214155 -2.9754734e-13 7.5307506)
(-214162.5 -2.9734384e-13 0)
(-214162.5 -2.9714033e-13 7.5312547)
(-214162.5 -2.969368e-13 0)
(-214177.5 -2.9673325e-13 0)
(-214177.5 -2.9652968e-13 0)
(-214177.5 -2.963261e-13 0)
(-214185 -2.9612249e-13 0)
(-214185 -2.9591888e-13 0)
(-214192.5 -2.9571524e-13 0)
(-214200 -2.9551158e-13 0)
(-214200 -2.9530792e-13 7.5335242)
(-214200 -2.9510422e-13 7.5337764)
(-214200 -2.9490051e-13 0)
(-214207.5 -2.946968e-13 0)
(-214215 -2.9449305e-13 0)
(-214215 -2.942893e-13 0)
(-214222.5 -2.9408553e-13 0)
(-214222.5 -2.9388173e-13 7.5352903)
(-214222.5 -2.9367793e-13 0)
(-214230 -2.934741e-13 0)
(-214237.5 -2.9327026e-13 0)
(-214237.5 -2.9306639e-13 0)
(-214237.5 -2.9286253e-13 0)
(-214245 -2.9265863e-13 0)
(-214252.5 -2.9245471e-13 0)
(-214252.5 -2.9225078e-13 0)
(-214252.5 -2.9204684e-13 0)
(-214260 2.9184286e-13 0)
(-214267.51 0 0)
(-214267.5 2.9143488e-13 7.5383198)
(-214267.5 -2.9123086e-13 0)
(-214275.01 0 0)
(-214275 2.9082278e-13 0)
(-214282.5 2.9061871e-13 0)
(-214290.01 2.9041466e-13 0)
(-214290 -2.9021052e-13 7.5398355)
(-214290 2.900064e-13 7.5400881)
(-214290.01 0 0)
(-214297.5 2.8959812e-13 0)
(-214305 -2.8939394e-13 0)
(-214305.01 2.8918979e-13 0)
(-214312.5 0 0)
(-214320 2.8878132e-13 6.584687e-08)
(-214312.51 0 7.5418573)
(-214320 -2.8837283e-13 6.5851285e-08)
(-214327.5 0 7.5423629)
(-214327.51 0 0)
(-214335 2.8775994e-13 0)
(-214335 0 7.5431215)
(-214335.01 2.8735131e-13 0)
(-214342.5 2.8714691e-13 0)
(-214350 2.8694253e-13 0)
(-214350.01 0 7.5441332)
(-214350 -2.8653372e-13 0)
(-214357.5 0 0)
(-214365.01 2.8612488e-13 0)
(-214365 0 7.5451451)
(-214365 -2.8571589e-13 3.2939997e-08)
(-214372.51 0 -3.2941106e-08)
(-214372.5 2.8530688e-13 7.5459043)
(-214380 0 -3.2943311e-08)
(-214387.51 0 7.5464104)
(-214380 -2.8469321e-13 0)
(-214387.5 2.8448863e-13 0)
(-214395.01 2.8428407e-13 0)
(-214395 2.840794e-13 0)
(-214402.5 -2.8387477e-13 0)
(-214410.01 0 0)
(-214410 2.8346543e-13 7.5481826)
(-214410 0 7.5484358)
(-214410.01 2.8305607e-13 0)
(-214417.5 -2.8285131e-13 0)
(-214425 2.8264656e-13 3.2956575e-08)
(-214425.01 0 -3.2957685e-08)
(-214432.5 2.8223703e-13 3.2958786e-08)
(-214432.5 -2.8203223e-13 7.5499555)
(-214432.51 0 0)
(-214440 2.8162259e-13 0)
(-214447.5 2.8141774e-13 0)
(-214447.51 2.8121291e-13 0)
(-214447.5 -2.81008e-13 0)
(-214462.5 2.8080309e-13 0)
(-214462.51 0 7.5517294)
(-214462.5 2.8039324e-13 0)
(-214462.5 -2.8018829e-13 7.5522363)
(-214462.51 2.7998336e-13 0)
(-214477.5 0 0)
(-214477.5 2.7957332e-13 3.2973169e-08)
(-214477.51 0 -6.5948562e-08)
(-214485 0 3.2975383e-08)
(-214492.5 0 -3.297649e-08)
(-214492.51 0 7.5540112)
(-214492.5 2.7854805e-13 0)
(-214500 -2.7834293e-13 0)
(-214500.01 2.7813785e-13 0)
(-214507.5 2.7793267e-13 0)
(-214515 2.777275e-13 0)
(-214515.01 0 7.5555332)
(-214515 -2.7731713e-13 7.5557869)
(-214515 0 0)
(-214522.51 2.7690673e-13 0)
(-214530 0 0)
(-214530 -2.7649618e-13 3.2989781e-08)
(-214537.51 0 -3.2990894e-08)
(-214537.5 2.760856e-13 7.5573096)
(-214537.5 0 -3.2993105e-08)
(-214552.51 0 0)
(-214552.5 -2.7546959e-13 7.5580712)
(-214552.5 2.7526422e-13 0)
(-214560.01 2.7505887e-13 7.558579)
(-214560 0 7.5588329)
(-214560 -2.7464801e-13 7.5590869)
(-214567.51 0 0)
(-214575 2.742371e-13 0)
(-214575 0 7.5598488)
(-214575.01 2.7382618e-13 0)
(-214582.5 -2.7362063e-13 0)
(-214590 0 0)
(-214590.01 0 7.560865)
(-214590 0 7.561119)
(-214597.5 -2.7279842e-13 0)
(-214605.01 0 7.5616273)
(-214605 0 7.5618814)
(-214605 0 7.5621355)
(-214605.01 -2.7197597e-13 0)
(-214612.5 -2.7177027e-13 0)
(-214620 0 -3.3016394e-08)
(-214627.51 0 0)
(-214627.5 0 7.5634065)
(-214627.5 -2.7094742e-13 0)
(-214635.01 0 0)
(-214635 0 0)
(-214642.5 0 0)
(-214642.51 0 7.564678)
(-214642.5 -2.6991848e-13 0)
(-214657.5 0 0)
(-214657.51 0 7.5654411)
(-214657.5 0 0)
(-214665 -2.69095e-13 -3.3029717e-08)
(-214665.01 -2.6888914e-13 7.5662043)
(-214665 0 0)
(-214672.5 0 -3.3033049e-08)
(-214680.01 0 0)
(-214680 -2.6806527e-13 -3.3035271e-08)
(-214687.5 0 0)
(-214687.51 0 7.5677312)
(-214687.5 0 0)
(-214695 -2.6724118e-13 0)
(-214702.51 0 0)
(-214702.5 0 7.5687495)
(-214702.5 0 0)
(-214710.01 0 3.3044167e-08)
(-214717.5 -2.6621066e-13 0)
(-214717.5 0 7.569768)
(-214717.51 -2.6579837e-13 0)
(-214725 0 0)
(-214732.5 -2.6538593e-13 -3.3049721e-08)
(-214732.51 0 7.5707868)
(-214732.5 0 -3.3051945e-08)
(-214740 0 0)
(-214740.01 0 0)
(-214747.5 -2.6435462e-13 0)
(-214755 0 0)
(-214755.01 0 7.5723156)
(-214755 0 7.5725705)
(-214762.5 -2.6352925e-13 0)
(-214762.51 0 7.5730802)
(-214762.5 0 0)
(-214777.5 0 -3.306307e-08)
(-214777.51 -2.6270365e-13 7.573845)
(-214777.5 -2.6249715e-13 0)
(-214785 0 -3.306641e-08)
(-214785.01 0 0)
(-214785 0 -3.3068636e-08)
(-214792.5 -2.6167117e-13 0)
(-214800.01 0 0)
(-214800 0 0)
(-214807.5 0 0)
(-214807.51 0 0)
(-214807.5 -2.6063828e-13 0)
(-214822.5 0 0)
(-214822.51 0 7.5769056)
(-214822.5 0 0)
(-214830 -2.5981165e-13 7.5774159)
(-214830.01 -2.5960498e-13 7.5776711)
(-214830 0 7.5779263)
(-214837.5 0 -3.3083115e-08)
(-214845.01 0 0)
(-214845 -2.5877797e-13 7.5786921)
(-214845 0 0)
(-214852.51 0 0)
(-214860 0 0)
(-214860 -2.579507e-13 7.5797133)
(-214860.01 0 7.5799687)
(-214867.5 0 0)
(-214875 0 7.5804794)
(-214875.01 0 7.5807349)
(-214875 -2.5691623e-13 7.5809902)
(-214875 0 -3.3096492e-08)
(-214882.51 -2.5650236e-13 0)
(-214890 0 0)
(-214897.5 -2.5608834e-13 -3.3099838e-08)
(-214897.51 0 7.5822676)
(-214897.5 0 -3.3102068e-08)
(-214905 0 0)
(-214905.01 0 0)
(-214912.5 -2.5505308e-13 0)
(-214920 0 0)
(-214920.01 0 7.583801)
(-214920 0 7.5840566)
(-214920 -2.5422454e-13 -3.3109879e-08)
(-214927.51 0 3.3111e-08)
(-214935 0 -3.3112111e-08)
(-214935 0 -3.3113228e-08)
(-214942.51 -2.5339577e-13 0)
(-214942.5 -2.5318848e-13 0)
(-214942.5 0 -3.3116577e-08)
(-214957.51 0 3.3117698e-08)
(-214957.5 0 7.586358)
(-214957.5 -2.5235932e-13 0)
(-214965.01 0 0)
(-214965 0 7.5871255)
(-214965 0 0)
(-214972.51 0 0)
(-214980 -2.5132247e-13 0)
(-214980 0 -3.3126629e-08)
(-214980.01 0 3.3127751e-08)
(-214987.5 0 -3.3128863e-08)
(-214995 -2.5049267e-13 -3.3129981e-08)
(-214995.01 -2.5028521e-13 0)
(-215002.5 0 0)
(-215002.5 0 7.5896847)
(-215002.51 0 3.3134456e-08)
(-215010 -2.4945502e-13 -3.3135569e-08)
(-215017.5 0 0)
(-215017.51 0 7.590709)
(-215017.5 0 0)
(-215025 -2.4862458e-13 0)
(-215025.01 0 0)
(-215032.5 0 0)
(-215040 0 -3.3143395e-08)
(-215040.01 0 3.3144518e-08)
(-215040 -2.4758613e-13 0)
(-215047.5 0 -3.314675e-08)
(-215055.01 -2.4717067e-13 0)
(-215055 0 7.5932706)
(-215055 -2.4675506e-13 7.5935269)
(-215062.51 0 3.315123e-08)
(-215062.5 0 7.5940395)
(-215062.5 0 0)
(-215077.51 0 0)
(-215077.5 -2.4571582e-13 7.5948085)
(-215077.5 0 0)
(-215085.01 0 0)
(-215085 0 0)
(-215092.5 -2.4488411e-13 -3.3160179e-08)
(-215092.51 0 7.5960906)
(-215092.5 0 -3.3162418e-08)
(-215107.5 0 -3.3163537e-08)
(-215107.51 -2.4405215e-13 7.5968599)
(-215107.5 -2.4384407e-13 0)
(-215115 0 -3.3166897e-08)
(-215115.01 0 3.3168022e-08)
(-215115 0 -3.3169137e-08)
(-215122.5 -2.4301172e-13 0)
(-215130.01 0 0)
(-215130 0 0)
(-215137.5 0 0)
(-215137.51 0 0)
(-215137.5 -2.4197088e-13 0)
(-215152.5 0 -3.3176979e-08)
(-215152.51 0 7.5999392)
(-215152.5 0 -3.317922e-08)
(-215160 -2.4113789e-13 7.6004526)
(-215160.01 -2.4092963e-13 7.6007094)
(-215160 0 7.6009662)
(-215167.5 0 -3.3183704e-08)
(-215175.01 0 3.318483e-08)
(-215175 -2.4009625e-13 7.6017365)
(-215175 0 0)
(-215182.51 0 0)
(-215190 0 0)
(-215190 -2.3926262e-13 7.602764)
(-215190.01 0 0)
(-215197.5 0 0)
(-215205 0 -3.3193796e-08)
(-215205.01 0 7.6037918)
(-215205 -2.3822017e-13 -3.319604e-08)
(-215212.5 0 -3.3197162e-08)
(-215220.01 -2.3780312e-13 7.6045628)
(-215220 0 7.6048198)
(-215220 -2.3738591e-13 7.6050768)
(-215227.51 0 3.3201655e-08)
(-215227.5 0 7.6055909)
(-215227.5 0 0)
(-215242.51 0 0)
(-215242.5 -2.3634267e-13 7.6063623)
(-215242.5 0 0)
(-215250.01 0 0)
(-215250 0 0)
(-215257.5 -2.3550776e-13 -3.3210631e-08)
(-215265.01 0 3.3211759e-08)
(-215265 0 -3.3212877e-08)
(-215265 0 0)
(-215272.51 -2.3467259e-13 0)
(-215272.5 -2.3446372e-13 7.6086773)
(-215272.5 0 -3.321737e-08)
(-215287.51 0 3.3218498e-08)
(-215287.5 0 7.6094492)
(-215287.5 -2.3362816e-13 0)
(-215295.01 0 0)
(-215295 0 0)
(-215302.5 0 0)
(-215302.51 0 7.6107362)
(-215302.5 -2.3258332e-13 0)
(-215317.5 0 -3.3227483e-08)
(-215317.51 0 7.6115086)
(-215317.5 0 -3.3229731e-08)
(-215325 -2.3174711e-13 -3.3230855e-08)
(-215325.01 -2.3153806e-13 7.6122812)
(-215325 0 0)
(-215332.5 0 -3.3234228e-08)
(-215340.01 0 3.3235358e-08)
(-215340 -2.3070147e-13 -3.3236477e-08)
(-215347.5 0 0)
(-215347.51 0 7.6138267)
(-215347.5 0 0)
(-215355 -2.2986463e-13 0)
(-215362.51 0 0)
(-215370 0 0)
(-215370 0 7.6151151)
(-215370.01 0 7.6153729)
(-215370 -2.2881818e-13 7.6156306)
(-215377.5 0 0)
(-215385.01 0 7.6161462)
(-215385 0 7.616404)
(-215385 -2.2798069e-13 -3.3251104e-08)
(-215392.51 0 0)
(-215400 0 -3.3253355e-08)
(-215400 0 7.6174355)
(-215400.01 0 0)
(-215407.5 -2.2693344e-13 0)
(-215415 0 0)
(-215415.01 0 7.6184672)
(-215415 0 0)
(-215422.5 -2.2609531e-13 -3.3261237e-08)
(-215430.01 0 3.3262369e-08)
(-215430 0 7.6194991)
(-215430 0 -3.3264617e-08)
(-215437.51 -2.2525693e-13 0)
(-215445 -2.2504724e-13 7.6202733)
(-215445 0 7.6205314)
(-215445.01 0 7.6207895)
(-215452.5 0 -3.327025e-08)
(-215452.5 -2.2420847e-13 7.6213058)
(-215460.01 0 0)
(-215467.5 0 7.6218221)
(-215460 0 0)
(-215467.51 0 -3.3275891e-08)
(-215475 2.231596e-13 0)
(-215482.5 0 0)
(-215482.51 0 7.6231133)
(-215482.5 0 0)
(-215490 2.2232017e-13 0)
(-215490.01 2.2211031e-13 0)
(-215497.5 -2.2190036e-13 0)
(-215505 0 -3.3284906e-08)
(-215505.01 0 7.6246633)
(-215505 0 7.6249216)
(-215512.5 -2.2106051e-13 0)
(-215512.51 0 7.6254385)
(-215512.5 0 0)
(-215527.5 0 0)
(-215527.51 0 7.6262138)
(-215527.5 -2.2001029e-13 0)
(-215535 2.1980019e-13 0)
(-215535.01 0 0)
(-215542.5 0 0)
(-215542.5 -2.1916979e-13 7.6275065)
(-215542.51 2.1895966e-13 0)
(-215557.5 -2.1874944e-13 0)
(-215557.5 0 7.6282823)
(-215557.51 0 0)
(-215565 0 -3.3304092e-08)
(-215565 -2.179085e-13 0)
(-215572.51 0 0)
(-215572.5 0 7.6295756)
(-215572.5 0 0)
(-215587.51 0 -3.3309744e-08)
(-215587.5 -2.1685694e-13 7.6303518)
(-215587.5 0 0)
(-215595.01 0 7.6308694)
(-215595 0 7.6311282)
(-215595 -2.1601536e-13 0)
(-215602.51 2.1580495e-13 0)
(-215610 0 0)
(-215610 0 0)
(-215617.51 0 0)
(-215617.5 0 7.6326814)
(-215617.5 2.1475245e-13 0)
(-215632.51 0 0)
(-215632.5 0 7.6334583)
(-215632.5 0 0)
(-215640.01 0 7.6339763)
(-215640 2.1369953e-13 7.6342353)
(-215640 0 0)
(-215647.51 0 -3.3330089e-08)
(-215655 0 0)
(-215655 2.1285687e-13 0)
(-215655.01 2.1264619e-13 0)
(-215662.5 -2.1243544e-13 0)
(-215670 0 -3.3335739e-08)
(-215670.01 0 0)
(-215677.5 0 -3.3338002e-08)
(-215677.5 -2.1159234e-13 7.6368264)
(-215677.51 0 0)
(-215685 2.1117068e-13 -3.3341397e-08)
(-215692.5 0 0)
(-215692.51 0 7.6378634)
(-215692.5 -2.1053807e-13 0)
(-215700 0 0)
(-215707.51 0 -3.3347062e-08)
(-215707.5 0 7.6389007)
(-215707.5 -2.0969432e-13 0)
(-215715.01 2.0948337e-13 0)
(-215722.5 -2.0927234e-13 0)
(-215722.5 0 -3.3352718e-08)
(-215722.51 0 0)
(-215730 0 0)
(-215737.5 -2.0842817e-13 0)
(-215737.51 0 0)
(-215737.5 0 -3.3358382e-08)
(-215745 0 0)
(-215752.51 0 -3.3360653e-08)
(-215752.5 -2.0737253e-13 7.6420141)
(-215752.5 -2.0716136e-13 0)
(-215760.01 0 0)
(-215767.5 0 0)
(-215767.5 -2.065277e-13 7.6430525)
(-215767.51 2.0631648e-13 0)
(-215775 2.0610518e-13 0)
(-215782.5 0 -3.3369714e-08)
(-215782.51 0 7.6440911)
(-215782.5 0 -3.3371982e-08)
(-215790 2.0525991e-13 0)
(-215790.01 0 0)
(-215797.5 0 -3.3375384e-08)
(-215805 0 0)
(-215805.01 0 -3.3377657e-08)
(-215805 2.0420292e-13 0)
(-215812.5 0 0)
(-215820.01 0 -3.338106e-08)
(-215820 0 7.646689)
(-215820 2.03357e-13 0)
(-215827.51 2.0314552e-13 0)
(-215835 -2.0293394e-13 7.6474687)
(-215835 0 7.6477286)
(-215835.01 -2.0251083e-13 7.6479886)
(-215835 0 -3.3388998e-08)
(-215842.5 -2.0208759e-13 0)
(-215850.01 0 0)
(-215857.5 0 -3.3392403e-08)
(-215857.5 0 7.6492886)
(-215857.51 0 0)
(-215865 -2.0102924e-13 0)
(-215865 0 0)
(-215872.51 0 -3.3398085e-08)
(-215880 0 0)
(-215880 -2.0018223e-13 7.6508492)
(-215880.01 1.9997046e-13 0)
(-215887.5 -1.9975862e-13 0)
(-215887.5 0 7.6516298)
(-215895.01 0 0)
(-215902.5 0 7.6521502)
(-215895 -1.9891117e-13 0)
(-215902.51 0 0)
(-215910 -1.9848735e-13 -3.340944e-08)
(-215910 0 0)
(-215917.51 0 -3.3411717e-08)
(-215925 -1.9785146e-13 0)
(-215925 0 0)
(-215925.01 0 -3.3415127e-08)
(-215932.5 0 0)
(-215932.5 -1.9700337e-13 7.6547536)
(-215932.51 1.9679133e-13 0)
(-215947.5 1.9657921e-13 0)
(-215947.5 0 7.6555349)
(-215947.51 0 0)
(-215955 0 -3.3423081e-08)
(-215955 1.9573067e-13 0)
(-215962.51 0 0)
(-215970 0 -3.3426494e-08)
(-215970 0 7.6570981)
(-215970.01 0 7.6573587)
(-215970 1.9466959e-13 0)
(-215977.5 0 0)
(-215985.01 0 -3.3432187e-08)
(-215985 0 0)
(-215992.5 0 0)
(-216000.01 1.9360809e-13 0)
(-216000 -1.9339569e-13 0)
(-216000 0 0)
(-216007.51 0 0)
(-216007.5 0 7.6599656)
(-216007.5 -1.9254607e-13 0)
(-216022.51 0 0)
(-216022.5 0 7.660748)
(-216022.5 0 0)
(-216030.01 0 -3.3445848e-08)
(-216030 -1.9148362e-13 0)
(-216037.5 0 0)
(-216037.51 0 7.6620524)
(-216037.5 0 0)
(-216052.5 -1.9063334e-13 0)
(-216052.51 1.9042075e-13 7.6628353)
(-216052.5 -1.9020808e-13 0)
(-216060 0 -3.3454956e-08)
(-216060.01 -1.8978278e-13 0)
(-216067.5 0 -3.3457235e-08)
(-216067.5 -1.8935736e-13 7.6641403)
(-216067.51 0 0)
(-216082.5 0 0)
(-216082.5 0 7.6649236)
(-216082.51 0 -3.3462939e-08)
(-216090 -1.8829353e-13 0)
(-216090 0 0)
(-216097.51 0 0)
(-216097.5 0 7.6662294)
(-216097.5 -1.8744216e-13 0)
(-216112.51 1.8722929e-13 0)
(-216112.5 1.8701635e-13 7.6670131)
(-216112.5 0 0)
(-216120.01 0 0)
(-216120 0 -3.3474338e-08)
(-216127.5 1.8616453e-13 0)
(-216127.51 0 7.6683196)
(-216127.5 0 -3.347776e-08)
(-216135 0 0)
(-216142.51 0 -3.3480048e-08)
(-216150 0 0)
(-216150 0 7.6696266)
(-216150.01 0 7.669888)
(-216150 0 0)
(-216157.5 1.8424686e-13 0)
(-216165.01 1.8403372e-13 0)
(-216165 -1.8382051e-13 0)
(-216172.5 0 0)
(-216180.01 0 0)
(-216180 0 7.6717186)
(-216180 -1.8296758e-13 7.6719802)
(-216180.01 0 0)
(-216187.5 0 -3.3494884e-08)
(-216195 0 0)
(-216195.01 0 -3.3497174e-08)
(-216202.5 -1.8190102e-13 0)
(-216210 0 0)
(-216210.01 0 7.6738118)
(-216210 0 7.6740736)
(-216210 0 7.6743353)
(-216217.51 1.8083402e-13 0)
(-216225 -1.8062053e-13 0)
(-216225 0 0)
(-216232.51 0 0)
(-216232.5 0 7.6756443)
(-216232.5 -1.7976651e-13 0)
(-216247.51 0 0)
(-216247.5 0 7.67643)
(-216247.5 0 0)
(-216255.01 0 0)
(-216255 -1.7869856e-13 0)
(-216262.5 0 0)
(-216262.51 0 7.6777396)
(-216262.5 0 0)
(-216277.5 -1.7784388e-13 0)
(-216277.51 1.7763018e-13 7.6785257)
(-216277.5 1.7741642e-13 0)
(-216285 0 0)
(-216285.01 0 0)
(-216292.5 0 -3.3525751e-08)
(-216292.5 0 7.6798361)
(-216292.51 0 0)
(-216300 0 0)
(-216307.5 0 0)
(-216315.01 0 0)
(-216315 1.7549197e-13 7.6811471)
(-216315 0 7.6814093)
(-216315.01 0 -3.3534913e-08)
(-216322.5 0 0)
(-216330 1.7463618e-13 0)
(-216330.01 1.7442221e-13 0)
(-216337.5 -1.7420818e-13 0)
(-216345 0 0)
(-216345.01 0 7.6832454)
(-216345 0 7.6835077)
(-216345 -1.7335194e-13 0)
(-216352.51 0 0)
(-216360 0 -3.3546361e-08)
(-216360 0 0)
(-216367.51 0 0)
(-216375 0 0)
(-216375 0 7.6853449)
(-216375.01 0 7.6856074)
(-216375 0 0)
(-216382.5 -1.7142434e-13 0)
(-216390.01 1.7121009e-13 0)
(-216390 -1.7099578e-13 0)
(-216397.5 0 0)
(-216405.01 0 0)
(-216405 0 7.6874455)
(-216405 -1.7013843e-13 0)
(-216412.51 0 0)
(-216412.5 0 7.6882336)
(-216412.5 0 0)
(-216427.51 0 -3.3565854e-08)
(-216427.5 -1.6906634e-13 7.6890218)
(-216427.5 0 0)
(-216435.01 0 -3.3569296e-08)
(-216435 0 0)
(-216442.5 -1.6820834e-13 0)
(-216442.51 1.6799381e-13 7.6903358)
(-216442.5 0 0)
(-216457.5 0 0)
(-216457.51 0 7.6911244)
(-216457.5 0 -3.3577323e-08)
(-216465 1.6692077e-13 0)
(-216465.01 0 0)
(-216472.5 0 0)
(-216480 0 0)
(-216480.01 0 7.6927022)
(-216480 1.6584729e-13 7.6929652)
(-216487.5 0 0)
(-216487.51 0 7.6934913)
(-216487.5 0 0)
(-216502.5 1.6498818e-13 0)
(-216502.51 1.6477337e-13 7.6942806)
(-216502.5 -1.6455851e-13 0)
(-216510 0 0)
(-216510.01 0 0)
(-216517.5 0 -3.3594549e-08)
(-216525 -1.6369894e-13 0)
(-216525.01 -1.6348403e-13 7.6958596)
(-216525 0 7.6961228)
(-216532.5 0 0)
(-216532.51 0 7.6966494)
(-216532.5 -1.6262408e-13 0)
(-216547.5 0 0)
(-216547.51 0 7.6974393)
(-216547.5 0 0)
(-216555 -1.6176384e-13 0)
(-216555.01 1.6154876e-13 0)
(-216562.5 -1.6133362e-13 0)
(-216570 0 0)
(-216570.01 0 0)
(-216570 0 0)
(-216577.5 -1.6047294e-13 0)
(-216585.01 0 0)
(-216585 0 7.7000735)
(-216585 0 7.7003371)
(-216592.51 0 0)
(-216592.5 -1.5939668e-13 7.7008642)
(-216592.5 -1.5918138e-13 0)
(-216607.51 0 0)
(-216607.5 0 0)
(-216607.5 -1.5853534e-13 0)
(-216615.01 1.5831998e-13 0)
(-216622.5 1.5810456e-13 0)
(-216622.5 0 7.7027096)
(-216622.51 0 0)
(-216630 0 -3.3629054e-08)
(-216637.5 1.5724276e-13 0)
(-216637.51 0 7.7037646)
(-216637.5 0 -3.3632509e-08)
(-216645 0 0)
(-216645.01 0 -3.3634817e-08)
(-216652.5 1.5616511e-13 0)
(-216660 0 0)
(-216660.01 0 0)
(-216660 0 0)
(-216667.5 1.5530265e-13 0)
(-216675.01 1.55087e-13 0)
(-216675 -1.548713e-13 0)
(-216675 1.546556e-13 0)
(-216682.51 0 0)
(-216690 0 0)
(-216690 -1.5400839e-13 0)
(-216690.01 0 0)
(-216697.5 0 -3.3649791e-08)
(-216705 0 0)
(-216705.76 0 -3.3652102e-08)
(-216708.75 -1.5292934e-13 2.3126338)
(-216712.5 0 2.3127131)
(-216716.26 0 2.3127922)
(-216720 0 2.3128716)
(-216723.75 -1.5206576e-13 1.5419672)
(-216728.26 1.5184984e-13 1.54202)
(-216732 -1.5163386e-13 2.3131093)
(-216735.75 0 2.3131886)
(-216739.51 0 2.3132679)
(-216742.5 0 2.3133471)
(-216747 -1.5076983e-13 1.5422843)
(-216750.76 0 2.3135057)
(-216753.75 -1.5033771e-13 1.54239)
(-216758.25 0 1.5424429)
(-216762.01 0 1.5424957)
(-216765.75 -1.4968938e-13 1.5425487)
(-216769.5 0 1.5426015)
(-216773.26 0 1.5426544)
(-216777.75 0 1.5427073)
(-216781.5 -1.4882468e-13 2.3141402)
(-216784.51 1.4860848e-13 2.3142196)
(-216788.25 1.4839222e-13 2.3142989)
(-216792 0 2.3143783)
(-216795.76 0 1.5429718)
(-216800.25 0 1.5430247)
(-216804 1.4752707e-13 2.3146164)
(-216807.01 0 2.3146958)
(-216811.5 0 1.5431834)
(-216815.25 0 2.3148545)
(-216818.26 0 1.5432892)
(-216822.75 1.4644521e-13 1.5433422)
(-216826.5 0 2.3150927)
(-216830.26 0 1.5434481)
(-216834 1.4579588e-13 2.3152515)
(-216837.75 1.4557939e-13 1.5435539)
(-216841.51 1.4536291e-13 2.3154103)
(-216845.25 -1.4514637e-13 1.5436598)
(-216849.75 0 1.5437128)
(-216853.51 0 2.3156486)
(-216856.5 0 2.3157281)
(-216860.25 -1.442801e-13 2.3158075)
(-216864.01 0 2.315887)
(-216867.75 0 1.5439776)
(-216872.25 0 1.5440306)
(-216876.01 0 2.3161254)
(-216879.75 -1.4319684e-13 2.3162048)
(-216883.5 0 2.3162843)
(-216887.26 0 2.3163638)
(-216891 0 2.3164433)
(-216894.75 -1.4232989e-13 2.3165228)
(-216898.51 1.4211313e-13 2.3166023)
(-216902.25 -1.4189631e-13 2.3166818)
(-216906 -1.4167948e-13 2.3167614)
(-216909.76 0 2.3168409)
(-216913.5 0 2.3169204)
(-216917.25 -1.4102891e-13 1.5446666)
(-216921.76 0 1.5447196)
(-216925.5 0 2.317159)
(-216928.5 0 2.3172385)
(-216932.26 0 1.5448787)
(-216936.75 -1.3994424e-13 1.5449318)
(-216940.5 0 2.3174772)
(-216944.26 0 2.3175568)
(-216948 0 2.3176364)
(-216951.75 -1.3907617e-13 2.3177159)
(-216955.51 1.3885913e-13 2.3177955)
(-216959.25 1.3864202e-13 2.3178751)
(-216963 0 2.3179547)
(-216966.76 0 1.5453562)
(-216971.25 0 2.3181139)
(-216974.25 1.377735e-13 2.3181935)
(-216978.01 0 1.5455154)
(-216982.5 0 2.3183528)
(-216986.25 0 2.3184324)
(-216990.01 -1.3690469e-13 2.318512)
(-216993 1.3668742e-13 2.3185917)
(-216996.75 0 1.5457809)
(-217001.26 0 1.5458339)
(-217005 0 1.5458871)
(-217008.75 1.3581822e-13 1.5459402)
(-217012.51 1.3560089e-13 1.5459933)
(-217016.25 -1.3538351e-13 1.5460464)
(-217020.75 0 1.5460995)
(-217024.51 0 2.319229)
(-217027.5 0 2.3193086)
(-217031.25 -1.3451385e-13 1.5462589)
(-217035.76 0 1.546312)
(-217039.5 0 2.3195478)
(-217042.5 0 2.3196275)
(-217047.01 0 1.5464715)
(-217050.75 -1.3342636e-13 2.3197869)
(-217053.75 0 1.5465778)
(-217058.26 0 1.5466309)
(-217062.75 -1.3277364e-13 1.5466841)
(-217065.75 -1.3255603e-13 2.3201058)
(-217069.51 1.3233842e-13 1.5467904)
(-217074 -1.3212075e-13 2.3202654)
(-217077 0 2.3203451)
(-217080.76 0 1.54695)
(-217085.25 0 1.5470031)
(-217089 -1.3124997e-13 2.3205844)
(-217092.76 0 2.3206642)
(-217096.5 0 2.320744)
(-217099.5 0 2.3208238)
(-217104.01 0 1.5472691)
(-217107.75 -1.3016107e-13 2.3209834)
(-217111.5 0 1.5473755)
(-217116.01 0 2.321143)
(-217119 0 2.3212229)
(-217122.75 -1.292896e-13 2.3213027)
(-217127.26 1.2907171e-13 2.3213825)
(-217131 1.2885376e-13 2.3214623)
(-217134 0 2.3215422)
(-217137.76 0 1.547748)
(-217142.25 0 1.5478013)
(-217146 0 2.3217818)
(-217149.76 0 1.5479077)
(-217153.5 0 2.3219415)
(-217157.25 0 1.5480142)
(-217161.76 0 1.5480675)
(-217165.5 1.2689152e-13 2.3221811)
(-217168.5 0 2.322261)
(-217172.26 0 2.3223409)
(-217176.75 0 2.3224208)
(-217180.5 1.2601892e-13 2.3225007)
(-217183.51 1.2580075e-13 2.3225806)
(-217188 -1.2558251e-13 1.5484404)
(-217191.75 0 2.3227405)
(-217195.51 0 1.5485469)
(-217200 0 2.3229003)
(-217203 -1.2470946e-13 2.3229803)
(-217206.76 0 2.3230602)
(-217210.5 0 2.3231402)
(-217214.25 0 1.5488134)
(-217218.76 -1.2383612e-13 1.5488667)
(-217222.5 -1.2361772e-13 2.3233801)
(-217226.25 0 2.3234601)
(-217230.01 0 2.32354)
(-217233.75 0 2.32362)
(-217237.5 -1.2274398e-13 2.3237)
(-217241.26 1.2252552e-13 2.32378)
(-217245 -1.22307e-13 2.32386)
(-217248.75 0 1.5492934)
(-217253.26 0 1.5493467)
(-217257 0 2.3241)
(-217260 -1.2143282e-13 2.3241801)
(-217264.51 0 1.5495067)
(-217268.25 0 2.3243401)
(-217271.25 -1.2077697e-13 1.5496134)
(-217275.76 1.2055834e-13 1.5496668)
(-217280.25 -1.2033965e-13 1.5497202)
(-217284 1.2012096e-13 2.3246604)
(-217287.01 1.1990227e-13 2.3247404)
(-217290.75 -1.1968353e-13 2.3248205)
(-217294.5 -1.1946478e-13 2.3249005)
(-217299.01 0 1.5499871)
(-217302.75 1.1902723e-13 2.3250607)
(-217305.75 -1.1880843e-13 1.5500939)
(-217310.26 1.1858962e-13 1.5501473)
(-217314 -1.1837076e-13 1.5502007)
(-217317.75 1.181519e-13 1.5502541)
(-217322.26 1.1793304e-13 1.5503075)
(-217326 -1.1771412e-13 2.3255413)
(-217329 -1.1749521e-13 2.3256215)
(-217332.76 1.1727629e-13 1.5504677)
(-217337.25 1.1705732e-13 1.5505211)
(-217341 -1.1683834e-13 2.3258619)
(-217344.76 1.1661936e-13 2.325942)
(-217348.5 -1.1640033e-13 2.3260222)
(-217352.25 1.161813e-13 2.3261023)
(-217356.01 1.1596227e-13 2.3261825)
(-217359.75 -1.1574318e-13 2.3262627)
(-217364.25 -1.1552409e-13 2.3263428)
(-217368.01 1.15305e-13 2.326423)
(-217371 1.1508586e-13 2.3265032)
(-217374.75 0 2.3265834)
(-217379.26 1.1464757e-13 1.551109)
(-217383 -1.1442837e-13 2.3267438)
(-217386.75 1.1420916e-13 1.551216)
(-217390.51 1.1398996e-13 2.3269042)
(-217394.25 -1.137707e-13 1.5513229)
(-217398.75 -1.1355144e-13 1.5513764)
(-217402.51 1.1333218e-13 2.3271448)
(-217405.5 1.1311286e-13 2.3272251)
(-217409.25 -1.1289354e-13 1.5515369)
(-217413.76 1.1267423e-13 1.5515904)
(-217417.5 -1.1245485e-13 2.3274658)
(-217421.25 1.1223548e-13 1.5516974)
(-217425.01 1.120161e-13 2.3276264)
(-217428.75 -1.1179667e-13 1.5518044)
(-217433.25 -1.1157724e-13 1.5518579)
(-217437.01 1.1135781e-13 2.3278672)
(-217440 1.1113832e-13 2.3279474)
(-217444.5 -1.1091883e-13 1.5520185)
(-217448.26 1.1069934e-13 2.328108)
(-217451.25 -1.104798e-13 1.5521256)
(-217455.75 0 1.5521791)
(-217460.26 1.100407e-13 1.5522326)
(-217464 -1.098211e-13 2.3284293)
(-217467 -1.096015e-13 2.3285096)
(-217470.76 1.0938189e-13 2.3285899)
(-217475.25 1.0916223e-13 2.3286702)
(-217479 -1.0894257e-13 2.3287506)
(-217482.76 1.0872291e-13 2.3288309)
(-217486.5 -1.0850319e-13 2.3289113)
(-217490.25 1.0828348e-13 2.3289916)
(-217494.01 1.0806376e-13 2.329072)
(-217497.75 -1.0784398e-13 2.3291524)
(-217501.5 -1.0762421e-13 2.3292327)
(-217506.01 1.0740443e-13 1.5528754)
(-217509.75 1.071846e-13 2.3293935)
(-217512.75 -1.0696477e-13 1.5529826)
(-217517.26 1.0674493e-13 1.5530362)
(-217521 -1.0652505e-13 2.3296347)
(-217524.75 1.0630516e-13 1.5531434)
(-217529.26 1.0608526e-13 1.553197)
(-217533 0 2.3298759)
(-217536 -1.0564537e-13 2.3299563)
(-217539.76 1.0542542e-13 1.5533578)
(-217544.25 1.0520542e-13 1.5534115)
(-217548 -1.0498541e-13 2.3301976)
(-217551.76 1.0476541e-13 1.5535187)
(-217555.5 -1.0454535e-13 2.3303585)
(-217559.25 1.0432528e-13 1.553626)
(-217563.76 1.0410522e-13 1.5536796)
(-217567.5 -1.038851e-13 2.3305999)
(-217570.5 -1.0366498e-13 2.3306804)
(-217575.01 1.0344486e-13 1.5538406)
(-217578.75 1.0322469e-13 2.3308414)
(-217582.5 -1.0300451e-13 1.5539479)
(-217587.01 1.0278433e-13 2.3310023)
(-217590 -1.025641e-13 2.3310828)
(-217593.75 1.0234386e-13 2.3311633)
(-217598.26 1.0212362e-13 2.3312439)
(-217602 -1.0190334e-13 2.3313244)
(-217605 -1.0168304e-13 2.3314049)
(-217609.51 1.0146275e-13 1.5543236)
(-217613.25 0 2.3315659)
(-217617 -1.0102205e-13 1.554431)
(-217621.51 1.008017e-13 2.331727)
(-217624.5 -1.005813e-13 2.3318076)
(-217628.25 1.0036089e-13 1.5545921)
(-217632.76 1.0014048e-13 1.5546458)
(-217636.5 -9.9920016e-14 2.3320493)
(-217640.25 -9.9699552e-14 2.3321298)
(-217644.01 9.9479082e-14 2.3322104)
(-217647.75 9.9258564e-14 1.5548607)
(-217652.25 -9.9038042e-14 1.5549144)
(-217656.01 9.8817515e-14 2.3324522)
(-217659 -9.8596939e-14 2.3325328)
(-217662.75 9.8376359e-14 1.5550756)
(-217667.26 9.8155775e-14 1.5551293)
(-217671 -9.7935142e-14 1.5551831)
(-217674.75 -9.7714505e-14 1.5552368)
(-217679.26 9.7493862e-14 1.5552906)
(-217683 9.7273171e-14 2.3330165)
(-217686 -9.7052476e-14 2.3330971)
(-217689.76 9.6831776e-14 1.5554519)
(-217694.25 -9.6611028e-14 1.5555056)
(-217698 9.6390275e-14 1.5555594)
(-217701.76 9.6169518e-14 1.5556132)
(-217706.25 -9.5948711e-14 1.555667)
(-217710 -9.5727901e-14 2.3335811)
(-217713.01 9.5507085e-14 2.3336618)
(-217716.75 9.5286222e-14 1.5558283)
(-217721.25 -9.5065354e-14 1.5558821)
(-217725.01 9.4844481e-14 2.3339038)
(-217728.75 -9.4623559e-14 1.5559897)