/*--------------------------------*- C++ -*----------------------------------*\
  =========                 |
  \\      /  F ield         | OpenFOAM: The Open Source CFD Toolbox
   \\    /   O peration     | Website:  https://openfoam.org
    \\  /    A nd           | Version:  6
     \\/     M anipulation  |
\*---------------------------------------------------------------------------*/
FoamFile
{
    version     2.0;
    format      ascii;
    class       volVectorField;
    location    "10000";
    object      U;
}
// * * * * * * * * * * * * * * * * * * * * * * * * * * * * * * * * * * * * * //

dimensions      [0 1 -1 0 0 0 0];

internalField   nonuniform List<vector> 
22500
(
(1.4964601 -1.9617991e-21 0.0015806086)
(1.4922506 2.3087871e-21 0.0041522089)
(1.4815966 0 0.0063259746)
(1.4669471 2.3031124e-21 0.0080184517)
(1.4494689 -2.3005577e-21 0.0092492849)
(1.4299826 0 0.010069005)
(1.4092474 2.2958273e-21 0.010531814)
(1.3879228 -2.2936384e-21 0.010695248)
(1.3665481 2.2915509e-21 0.010617103)
(1.3455477 0 0.010351613)
(1.3252426 -2.2876332e-21 0.0099471599)
(1.305864 -2.2857809e-21 0.0094452696)
(1.2875671 0 0.0088804234)
(1.2704457 -2.2822404e-21 0.0082804138)
(1.2545447 0 0.007667013)
(1.2398712 0 0.007056787)
(1.2264044 0 0.0064619378)
(1.2141031 0 0.0058911019)
(1.2029122 0 0.005350067)
(1.1927677 0 0.0048423911)
(1.1836006 0 0.0043699212)
(1.1753394 0 0.0039332187)
(1.167913 -2.267741e-21 0.0035319019)
(1.1612515 0 0.0031649171)
(1.155288 0 0.0028307501)
(1.1499587 0 0.0025275899)
(1.1452038 0 0.002253452)
(1.1409675 0 0.0020062712)
(1.1371982 0 0.0017839701)
(1.1338484 0 0.0015845082)
(1.1308746 2.2554618e-21 0.0014059155)
(1.1282371 -2.2539331e-21 0.0012463164)
(1.1258998 -2.2524044e-21 0.0011039436)
(1.1238303 2.2508756e-21 0.00097714606)
(1.1219989 -2.2493466e-21 0.00086439253)
(1.1203792 2.2478173e-21 0.00076427093)
(1.1189473 -2.2462875e-21 0.00067548579)
(1.1176819 2.2447574e-21 0.0005968537)
(1.1165638 0 0.00052729771)
(1.115576 2.2416957e-21 0.00046584101)
(1.1147032 -2.2401642e-21 0.00041160025)
(1.1139319 2.2386322e-21 0.00036377868)
(1.1132501 0 0.00032165944)
(1.1126469 -2.2355669e-21 0.0002845989)
(1.1121131 2.2340337e-21 0.0002520204)
(1.11164 2.2325001e-21 0.0002234082)
(1.1112204 -2.2309662e-21 0.00019830187)
(1.1108476 0 0.00017629099)
(1.1105159 2.2278975e-21 0.00015701029)
(1.1102201 -2.2263627e-21 0.00014013514)
(1.1099558 0 0.00012537743)
(1.1097189 0 0.00011248175)
(1.1095061 2.2217569e-21 0.00010122201)
(1.1093143 0 9.1398263e-05)
(1.1091407 2.2186854e-21 8.2833894e-05)
(1.1089831 -2.2171495e-21 7.5373066e-05)
(1.1088394 2.2156134e-21 6.8878415e-05)
(1.1087077 0 6.3228983e-05)
(1.1085865 -2.2125409e-21 5.8318359e-05)
(1.1084745 2.2110044e-21 5.4053018e-05)
(1.1083704 2.2094679e-21 5.0350836e-05)
(1.1082731 0 4.7139763e-05)
(1.1081818 2.2063947e-21 4.4356639e-05)
(1.1080957 2.204858e-21 4.1946153e-05)
(1.108014 2.2033212e-21 3.9859897e-05)
(1.1079363 0 3.8055545e-05)
(1.1078618 2.2002475e-21 3.6496116e-05)
(1.1077903 2.1987107e-21 3.5149326e-05)
(1.1077212 2.1971737e-21 3.3987012e-05)
(1.1076543 -2.1956368e-21 3.2984625e-05)
(1.1075892 2.1940998e-21 3.2120783e-05)
(1.1075258 2.1925628e-21 3.1376873e-05)
(1.1074637 2.1910258e-21 3.0736712e-05)
(1.1074028 0 3.0186231e-05)
(1.1073429 2.1879517e-21 2.9713213e-05)
(1.1072839 2.1864146e-21 2.9307057e-05)
(1.1072256 0 2.8958569e-05)
(1.107168 2.1833405e-21 2.8659782e-05)
(1.107111 2.1818034e-21 2.8403797e-05)
(1.1070544 2.1802663e-21 2.8184646e-05)
(1.1069982 0 2.7997164e-05)
(1.1069423 2.1771921e-21 2.7836895e-05)
(1.1068868 2.175655e-21 2.7699985e-05)
(1.1068315 2.1741179e-21 2.7583114e-05)
(1.1067764 0 2.7483416e-05)
(1.1067215 2.1710436e-21 2.7398426e-05)
(1.1066667 2.1695065e-21 2.7326018e-05)
(1.1066121 2.1679694e-21 2.7264365e-05)
(1.1065576 0 2.72119e-05)
(1.1065031 2.1648951e-21 2.716727e-05)
(1.1064488 0 2.7129322e-05)
(1.1063945 0 2.7097061e-05)
(1.1063403 2.1602837e-21 2.706964e-05)
(1.1062862 2.1587466e-21 2.704633e-05)
(1.106232 2.1572095e-21 2.7026509e-05)
(1.106178 0 2.7009646e-05)
(1.1061239 2.1541352e-21 2.6995287e-05)
(1.1060699 2.1525981e-21 2.6983048e-05)
(1.1060159 2.1510609e-21 2.6972595e-05)
(1.1059619 0 2.6963651e-05)
(1.1059079 2.1479867e-21 2.6955977e-05)
(1.1058539 2.1464496e-21 2.694937e-05)
(1.1058 2.1449124e-21 2.6943659e-05)
(1.105746 0 2.6938698e-05)
(1.1056921 2.1418382e-21 2.6934364e-05)
(1.1056381 2.1403011e-21 2.6930554e-05)
(1.1055842 0 2.692718e-05)
(1.1055303 2.1372268e-21 2.6924167e-05)
(1.1054764 2.1356897e-21 2.6921454e-05)
(1.1054224 2.1341526e-21 2.6918989e-05)
(1.1053685 -2.1326155e-21 2.6916728e-05)
(1.1053146 2.1310783e-21 2.6914633e-05)
(1.1052607 2.1295412e-21 2.6912676e-05)
(1.1052068 2.1280041e-21 2.6910829e-05)
(1.1051529 0 2.6909072e-05)
(1.105099 2.1249299e-21 2.6907389e-05)
(1.1050451 2.1233928e-21 2.6905762e-05)
(1.1049912 2.1218557e-21 2.6904182e-05)
(1.1049373 0 2.6902638e-05)
(1.1048834 2.1187814e-21 2.6901122e-05)
(1.1048295 2.1172443e-21 2.6899627e-05)
(1.1047756 2.1157072e-21 2.6898149e-05)
(1.1047217 2.1141701e-21 2.6896682e-05)
(1.1046678 2.112633e-21 2.6895224e-05)
(1.1046139 2.1110959e-21 2.6893773e-05)
(1.10456 2.1095588e-21 2.6892323e-05)
(1.1045061 2.1080217e-21 2.6890877e-05)
(1.1044522 2.1064846e-21 2.6889431e-05)
(1.1043984 2.1049475e-21 2.6887984e-05)
(1.1043445 2.1034104e-21 2.6886536e-05)
(1.1042906 2.1018733e-21 2.6885087e-05)
(1.1042367 2.1003362e-21 2.6883635e-05)
(1.1041828 2.0987991e-21 2.6882181e-05)
(1.1041289 2.0972621e-21 2.6880726e-05)
(1.1040751 2.095725e-21 2.6879266e-05)
(1.1040212 2.0941879e-21 2.6877806e-05)
(1.1039673 2.0926508e-21 2.6876342e-05)
(1.1039134 2.0911137e-21 2.6874876e-05)
(1.1038595 2.0895766e-21 2.6873408e-05)
(1.1038057 2.0880395e-21 2.6871938e-05)
(1.1037518 2.0865024e-21 2.6870466e-05)
(1.1036979 2.0849653e-21 2.6868991e-05)
(1.103644 2.0834283e-21 2.6867516e-05)
(1.1035902 2.0818912e-21 2.6866038e-05)
(1.1035363 2.0803541e-21 2.686456e-05)
(1.1034824 2.078817e-21 2.686308e-05)
(1.1034286 2.07728e-21 2.6861598e-05)
(1.1033747 2.0757429e-21 2.6860116e-05)
(1.1033208 2.0742058e-21 2.6858633e-05)
(1.103267 2.0726687e-21 2.6857149e-05)
(1.1032131 -2.0711316e-21 2.6855663e-05)
(1.1031592 0 2.6854179e-05)
(1.1031054 -2.0680575e-21 2.6852691e-05)
(1.1030515 2.0665204e-21 2.6851205e-05)
(1.1029977 0 2.6849718e-05)
(1.1029438 -2.0634463e-21 2.684823e-05)
(1.1028899 -2.0619092e-21 2.6846742e-05)
(1.1028361 -2.0603723e-21 2.6845253e-05)
(1.1027822 2.0588351e-21 2.6843764e-05)
(1.1027284 -2.057298e-21 2.6842275e-05)
(1.1026745 0 2.6840787e-05)
(1.1026207 -2.0542239e-21 2.6839296e-05)
(1.1025668 2.0526869e-21 2.6837807e-05)
(1.102513 -2.05115e-21 2.6836318e-05)
(1.1024591 0 2.6834828e-05)
(1.1024053 -2.0480757e-21 2.6833338e-05)
(1.1023515 0 2.6831848e-05)
(1.1022976 2.0450016e-21 2.6830358e-05)
(1.1022438 0 2.6828867e-05)
(1.1021899 0 2.6827378e-05)
(1.1021361 -2.0403905e-21 2.6825887e-05)
(1.1020823 0 2.6824397e-05)
(1.1020284 -2.0373165e-21 2.6822907e-05)
(1.1019746 -2.0357793e-21 2.6821417e-05)
(1.1019207 -2.0342423e-21 2.6819927e-05)
(1.1018669 0 2.6818437e-05)
(1.1018131 2.0311682e-21 2.6816946e-05)
(1.1017592 0 2.6815456e-05)
(1.1017054 -2.0280943e-21 2.6813967e-05)
(1.1016516 0 2.6812476e-05)
(1.1015978 2.0250201e-21 2.6810986e-05)
(1.1015439 0 2.6809496e-05)
(1.1014901 -2.021946e-21 2.6808006e-05)
(1.1014363 0 2.6806516e-05)
(1.1013825 0 2.6805026e-05)
(1.1013286 2.017335e-21 2.6803536e-05)
(1.1012748 -2.0157979e-21 2.6802046e-05)
(1.101221 -2.0142611e-21 2.6800557e-05)
(1.1011672 -2.0127239e-21 2.6799067e-05)
(1.1011134 2.0111869e-21 2.6797577e-05)
(1.1010595 0 2.6796088e-05)
(1.1010057 -2.0081128e-21 2.6794598e-05)
(1.1009519 0 2.6793108e-05)
(1.1008981 -2.005039e-21 2.6791619e-05)
(1.1008443 2.0035018e-21 2.6790129e-05)
(1.1007905 -2.0019648e-21 2.6788639e-05)
(1.1007367 0 2.6787151e-05)
(1.1006829 -1.9988908e-21 2.678566e-05)
(1.1006291 1.9973538e-21 2.6784171e-05)
(1.1005753 0 2.6782682e-05)
(1.1005215 -1.9942798e-21 2.6781192e-05)
(1.1004677 -1.9927428e-21 2.6779703e-05)
(1.1004139 -1.991206e-21 2.6778214e-05)
(1.1003601 1.9896688e-21 2.6776724e-05)
(1.1003063 -1.9881318e-21 2.6775235e-05)
(1.1002525 0 2.6773747e-05)
(1.1001987 -1.9850578e-21 2.6772257e-05)
(1.1001449 1.9835208e-21 2.6770768e-05)
(1.1000911 -1.981984e-21 2.6769279e-05)
(1.1000373 0 2.676779e-05)
(1.0999835 -1.9789099e-21 2.67663e-05)
(1.0999297 0 2.6764811e-05)
(1.0998759 0 2.6763322e-05)
(1.0998221 0 2.6761833e-05)
(1.0997683 0 2.6760345e-05)
(1.0997145 -1.971225e-21 2.6758855e-05)
(1.0996608 1.969688e-21 2.6757367e-05)
(1.099607 -1.9681512e-21 2.6755878e-05)
(1.0995532 -1.966614e-21 2.6754389e-05)
(1.0994994 -1.9650771e-21 2.6752901e-05)
(1.0994456 0 2.6751412e-05)
(1.0993918 1.9620031e-21 2.6749923e-05)
(1.0993381 0 2.6748434e-05)
(1.0992843 -1.9589294e-21 2.6746947e-05)
(1.0992305 0 2.6745457e-05)
(1.0991767 1.9558553e-21 2.6743969e-05)
(1.099123 0 2.6742481e-05)
(1.0990692 -1.9527813e-21 2.6740992e-05)
(1.0990154 0 2.6739504e-05)
(1.0989617 0 2.6738016e-05)
(1.0989079 1.9481705e-21 2.6736527e-05)
(1.0988541 -1.9466335e-21 2.6735039e-05)
(1.0988004 -1.9450967e-21 2.6733551e-05)
(1.0987466 0 2.6732062e-05)
(1.0986928 1.9420227e-21 2.6730574e-05)
(1.0986391 0 2.6729086e-05)
(1.0985853 -1.9389488e-21 2.6727598e-05)
(1.0985315 0 2.672611e-05)
(1.0984778 -1.9358751e-21 2.6724622e-05)
(1.098424 1.934338e-21 2.6723134e-05)
(1.0983703 0 2.6721646e-05)
(1.0983165 0 2.6720159e-05)
(1.0982628 0 2.671867e-05)
(1.098209 1.9281902e-21 2.6717183e-05)
(1.0981553 0 2.6715695e-05)
(1.0981015 0 2.6714207e-05)
(1.0980478 0 2.671272e-05)
(1.097994 1.9220427e-21 2.6711232e-05)
(1.0979403 1.9205056e-21 2.6709744e-05)
(1.0978865 0 2.6708256e-05)
(1.0978328 0 2.6706769e-05)
(1.097779 0 2.670528e-05)
(1.0977253 1.9143579e-21 2.6703793e-05)
(1.0976715 0 2.6702305e-05)
(1.0976178 0 2.6700818e-05)
(1.0975641 0 2.669933e-05)
(1.0975103 0 2.6697843e-05)
(1.0974566 1.9066734e-21 2.6696355e-05)
(1.0974029 0 2.6694867e-05)
(1.0973491 0 2.6693381e-05)
(1.0972954 0 2.6691893e-05)
(1.0972417 1.9005258e-21 2.6690406e-05)
(1.0971879 1.898989e-21 2.6688919e-05)
(1.0971342 0 2.6687431e-05)
(1.0970805 0 2.6685944e-05)
(1.0970268 0 2.6684457e-05)
(1.096973 1.8928413e-21 2.668297e-05)
(1.0969193 0 2.6681483e-05)
(1.0968656 0 2.6679997e-05)
(1.0968119 0 2.6678509e-05)
(1.0967581 1.8866937e-21 2.6677022e-05)
(1.0967044 0 2.6675535e-05)
(1.0966507 0 2.6674049e-05)
(1.096597 0 2.6672562e-05)
(1.0965433 0 2.6671075e-05)
(1.0964895 1.8790094e-21 2.6669589e-05)
(1.0964358 0 2.6668102e-05)
(1.0963821 1.8759358e-21 2.6666616e-05)
(1.0963284 0 2.6665129e-05)
(1.0962747 1.8728619e-21 2.6663643e-05)
(1.096221 0 2.6662156e-05)
(1.0961673 0 2.666067e-05)
(1.0961136 0 2.6659184e-05)
(1.0960599 0 2.6657697e-05)
(1.0960062 1.8651776e-21 2.6656211e-05)
(1.0959525 0 2.6654724e-05)
(1.0958988 0 2.6653239e-05)
(1.0958451 0 2.6651752e-05)
(1.0957914 1.8590302e-21 2.6650266e-05)
(1.0957377 0 2.664878e-05)
(1.095684 0 2.6647294e-05)
(1.0956303 0 2.6645808e-05)
(1.0955766 1.8528829e-21 2.6644322e-05)
(1.0955229 1.8513459e-21 2.6642836e-05)
(1.0954692 0 2.664135e-05)
(1.0954155 0 2.6639865e-05)
(1.0953618 0 2.6638378e-05)
(1.0953081 1.8451986e-21 2.6636893e-05)
(1.0952544 0 2.6635407e-05)
(1.0952007 0 2.6633922e-05)
(1.0951471 0 2.6632436e-05)
(1.0950934 0 2.663095e-05)
(1.0950397 1.8375145e-21 2.6629465e-05)
(1.094986 0 2.6627979e-05)
(1.0949323 0 2.6626494e-05)
(1.0948787 0 2.6625008e-05)
(1.094825 1.8313672e-21 2.6623523e-05)
(1.0947713 1.8298305e-21 2.6622038e-05)
(1.0947176 0 2.6620553e-05)
(1.0946639 0 2.6619067e-05)
(1.0946103 0 2.6617582e-05)
(1.0945566 1.8236832e-21 2.6616097e-05)
(1.0945029 0 2.6614612e-05)
(1.0944493 0 2.6613127e-05)
(1.0943956 0 2.6611642e-05)
(1.0943419 1.817536e-21 2.6610157e-05)
(1.0942883 0 2.6608672e-05)
(1.0942346 0 2.6607187e-05)
(1.0941809 0 2.6605702e-05)
(1.0941273 0 2.6604217e-05)
(1.0940736 1.809852e-21 2.6602733e-05)
(1.0940199 0 2.6601248e-05)
(1.0939663 1.8067786e-21 2.6599764e-05)
(1.0939126 0 2.6598278e-05)
(1.093859 1.8037049e-21 2.6596794e-05)
(1.0938053 0 2.6595309e-05)
(1.0937517 0 2.6593825e-05)
(1.093698 0 2.659234e-05)
(1.0936444 0 2.6590856e-05)
(1.0935907 1.796021e-21 2.6589371e-05)
(1.0935371 0 2.6587887e-05)
(1.0934834 0 2.6586403e-05)
(1.0934298 0 2.6584918e-05)
(1.0933761 1.789874e-21 2.6583434e-05)
(1.0933225 0 2.6581949e-05)
(1.0932688 0 2.6580465e-05)
(1.0932152 0 2.6578981e-05)
(1.0931615 1.7837271e-21 2.6577497e-05)
(1.0931079 1.7821902e-21 2.6576012e-05)
(1.0930543 0 2.6574528e-05)
(1.0930006 0 2.6573045e-05)
(1.092947 0 2.657156e-05)
(1.0928934 1.7760433e-21 2.6570076e-05)
(1.0928397 0 2.6568592e-05)
(1.0927861 0 2.6567109e-05)
(1.0927325 0 2.6565625e-05)
(1.0926788 0 2.6564141e-05)
(1.0926252 1.7683596e-21 2.6562657e-05)
(1.0925716 0 2.6561173e-05)
(1.0925179 0 2.655969e-05)
(1.0924643 0 2.6558206e-05)
(1.0924107 1.7622127e-21 2.6556723e-05)
(1.0923571 1.7606761e-21 2.6555239e-05)
(1.0923034 0 2.6553756e-05)
(1.0922498 0 2.6552272e-05)
(1.0921962 0 2.6550789e-05)
(1.0921426 1.7545292e-21 2.6549306e-05)
(1.092089 0 2.6547822e-05)
(1.0920354 0 2.6546339e-05)
(1.0919817 0 2.6544855e-05)
(1.0919281 1.7483823e-21 2.6543372e-05)
(1.0918745 0 2.6541889e-05)
(1.0918209 0 2.6540406e-05)
(1.0917673 0 2.6538922e-05)
(1.0917137 0 2.6537439e-05)
(1.0916601 1.7406989e-21 2.6535956e-05)
(1.0916065 0 2.6534472e-05)
(1.0915529 1.7376257e-21 2.653299e-05)
(1.0914993 0 2.6531506e-05)
(1.0914457 1.7345522e-21 2.6530023e-05)
(1.091392 0 2.652854e-05)
(1.0913384 0 2.6527057e-05)
(1.0912848 0 2.6525574e-05)
(1.0912312 0 2.6524091e-05)
(1.0911777 1.7268688e-21 2.6522608e-05)
(1.0911241 0 2.6521125e-05)
(1.0910705 0 2.6519643e-05)
(1.0910169 0 2.651816e-05)
(1.0909633 1.7207222e-21 2.6516677e-05)
(1.0909097 0 2.6515195e-05)
(1.0908561 0 2.6513712e-05)
(1.0908025 0 2.651223e-05)
(1.0907489 1.7145757e-21 2.6510747e-05)
(1.0906953 1.7130389e-21 2.6509265e-05)
(1.0906417 0 2.6507782e-05)
(1.0905882 0 2.65063e-05)
(1.0905346 0 2.6504817e-05)
(1.090481 1.7068924e-21 2.6503335e-05)
(1.0904274 0 2.6501853e-05)
(1.0903738 0 2.6500371e-05)
(1.0903203 0 2.6498889e-05)
(1.0902667 0 2.6497406e-05)
(1.0902131 1.6992092e-21 2.6495924e-05)
(1.0901595 0 2.6494442e-05)
(1.090106 0 2.6492961e-05)
(1.0900524 0 2.6491478e-05)
(1.0899988 1.6930627e-21 2.6489996e-05)
(1.0899452 1.6915263e-21 2.6488514e-05)
(1.0898917 0 2.6487032e-05)
(1.0898381 0 2.648555e-05)
(1.0897845 0 2.6484069e-05)
(1.089731 1.6853797e-21 2.6482587e-05)
(1.0896774 0 2.6481105e-05)
(1.0896238 0 2.6479624e-05)
(1.0895703 0 2.6478142e-05)
(1.0895167 1.6792333e-21 2.647666e-05)
(1.0894632 0 2.6475179e-05)
(1.0894096 0 2.6473698e-05)
(1.089356 0 2.6472216e-05)
(1.0893025 0 2.6470735e-05)
(1.0892489 1.6715504e-21 2.6469254e-05)
(1.0891954 0 2.6467772e-05)
(1.0891418 1.6684774e-21 2.6466292e-05)
(1.0890883 0 2.646481e-05)
(1.0890347 1.6654041e-21 2.6463329e-05)
(1.0889812 0 2.6461848e-05)
(1.0889276 0 2.6460367e-05)
(1.0888741 0 2.6458886e-05)
(1.0888205 0 2.6457405e-05)
(1.088767 1.6577213e-21 2.6455924e-05)
(1.0887135 0 2.6454443e-05)
(1.0886599 0 2.6452963e-05)
(1.0886064 0 2.6451481e-05)
(1.0885528 1.6515751e-21 2.645e-05)
(1.0884993 0 2.644852e-05)
(1.0884458 0 2.6447039e-05)
(1.0883922 0 2.6445558e-05)
(1.0883387 1.6454291e-21 2.6444077e-05)
(1.0882852 1.6438924e-21 2.6442596e-05)
(1.0882316 0 2.6441115e-05)
(1.0881781 0 2.6439636e-05)
(1.0881246 0 2.6438154e-05)
(1.088071 1.6377463e-21 2.6436674e-05)
(1.0880175 0 2.6435194e-05)
(1.087964 0 2.6433713e-05)
(1.0879105 0 2.6432233e-05)
(1.0878569 0 2.6430752e-05)
(1.0878034 1.6300637e-21 2.6429272e-05)
(1.0877499 0 2.6427791e-05)
(1.0876964 0 2.6426312e-05)
(1.0876429 0 2.6424831e-05)
(1.0875893 1.6239177e-21 2.6423351e-05)
(1.0875358 1.6223813e-21 2.6421871e-05)
(1.0874823 0 2.6420391e-05)
(1.0874288 0 2.6418911e-05)
(1.0873753 0 2.6417431e-05)
(1.0873218 1.6162352e-21 2.6415951e-05)
(1.0872683 0 2.641447e-05)
(1.0872147 0 2.6412991e-05)
(1.0871612 0 2.641151e-05)
(1.0871077 1.6100893e-21 2.6410031e-05)
(1.0870542 0 2.6408551e-05)
(1.0870007 0 2.6407071e-05)
(1.0869472 0 2.6405591e-05)
(1.0868937 0 2.6404111e-05)
(1.0868402 1.602407e-21 2.6402632e-05)
(1.0867867 0 2.6401152e-05)
(1.0867332 0 2.6399673e-05)
(1.0866797 0 2.6398192e-05)
(1.0866262 1.5962612e-21 2.6396713e-05)
(1.0865727 0 2.6395233e-05)
(1.0865192 0 2.6393754e-05)
(1.0864657 0 2.6392274e-05)
(1.0864122 0 2.6390795e-05)
(1.0863588 1.5885789e-21 2.6389315e-05)
(1.0863053 0 2.6387836e-05)
(1.0862518 0 2.6386357e-05)
(1.0861983 0 2.6384877e-05)
(1.0861448 1.5824332e-21 2.6383398e-05)
(1.0860913 0 2.6381919e-05)
(1.0860378 0 2.638044e-05)
(1.0859844 0 2.6378961e-05)
(1.0859309 1.5762877e-21 2.6377482e-05)
(1.0858774 1.5747511e-21 2.6376003e-05)
(1.0858239 0 2.6374523e-05)
(1.0857704 0 2.6373045e-05)
(1.085717 0 2.6371566e-05)
(1.0856635 1.5686055e-21 2.6370087e-05)
(1.08561 0 2.6368608e-05)
(1.0855565 0 2.636713e-05)
(1.0855031 0 2.6365651e-05)
(1.0854496 0 2.6364172e-05)
(1.0853961 -1.5609235e-21 2.6362694e-05)
(1.0853427 0 2.6361215e-05)
(1.0852892 0 2.6359737e-05)
(1.0852357 0 2.6358258e-05)
(1.0851823 -1.554778e-21 2.635678e-05)
(1.0851288 -1.5532418e-21 2.6355302e-05)
(1.0850753 1.5517053e-21 2.6353823e-05)
(1.0850219 0 2.6352345e-05)
(1.0849684 0 2.6350867e-05)
(1.084915 0 2.6349389e-05)
(1.0848615 1.5455598e-21 2.6347911e-05)
(1.084808 0 2.6346434e-05)
(1.0847546 0 2.6344955e-05)
(1.0847011 0 2.6343477e-05)
(1.0846477 0 2.6341999e-05)
(1.0845942 1.5378781e-21 2.6340522e-05)
(1.0845408 -1.5363417e-21 2.6339044e-05)
(1.0844873 0 2.6337566e-05)
(1.0844339 0 2.6336088e-05)
(1.0843804 1.5317327e-21 2.633461e-05)
(1.084327 -1.5301965e-21 2.6333134e-05)
(1.0842735 1.5286601e-21 2.6331655e-05)
(1.0842201 0 2.6330178e-05)
(1.0841667 0 2.6328701e-05)
(1.0841132 0 2.6327223e-05)
(1.0840598 1.5225148e-21 2.6325746e-05)
(1.0840063 0 2.6324269e-05)
(1.0839529 0 2.6322792e-05)
(1.0838995 0 2.6321314e-05)
(1.083846 0 2.6319838e-05)
(1.0837926 1.5148333e-21 2.631836e-05)
(1.0837392 0 2.6316883e-05)
(1.0836857 0 2.6315407e-05)
(1.0836323 0 2.631393e-05)
(1.0835789 1.5086881e-21 2.6312453e-05)
(1.0835255 -1.507152e-21 2.6310976e-05)
(1.083472 0 2.6309499e-05)
(1.0834186 0 2.6308022e-05)
(1.0833652 0 2.6306547e-05)
(1.0833118 0 2.6305069e-05)
(1.0832583 -1.4994705e-21 2.6303593e-05)
(1.0832049 0 2.6302117e-05)
(1.0831515 0 2.630064e-05)
(1.0830981 0 2.6299164e-05)
(1.0830447 0 2.6297687e-05)
(1.0829912 -1.4917891e-21 2.6296211e-05)
(1.0829378 0 2.6294734e-05)
(1.0828844 0 2.6293259e-05)
(1.082831 0 2.6291782e-05)
(1.0827776 -1.4856442e-21 2.6290306e-05)
(1.0827242 -1.484108e-21 2.6288829e-05)
(1.0826708 1.4825717e-21 2.6287353e-05)
(1.0826174 0 2.6285877e-05)
(1.082564 0 2.62844e-05)
(1.0825106 0 2.6282924e-05)
(1.0824571 1.4764268e-21 2.6281448e-05)
(1.0824037 0 2.6279972e-05)
(1.0823503 -1.4733543e-21 2.6278495e-05)
(1.0822969 0 2.6277019e-05)
(1.0822435 0 2.6275543e-05)
(1.0821901 1.4687457e-21 2.6274067e-05)
(1.0821368 0 2.6272591e-05)
(1.0820834 0 2.6271115e-05)
(1.08203 0 2.6269639e-05)
(1.0819766 1.4626009e-21 2.6268163e-05)
(1.0819232 -1.4610648e-21 2.6266688e-05)
(1.0818698 1.4595285e-21 2.6265211e-05)
(1.0818164 0 2.6263736e-05)
(1.081763 0 2.626226e-05)
(1.0817096 0 2.6260784e-05)
(1.0816562 1.4533838e-21 2.6259309e-05)
(1.0816028 0 2.6257833e-05)
(1.0815495 0 2.6256357e-05)
(1.0814961 0 2.6254882e-05)
(1.0814427 0 2.6253407e-05)
(1.0813893 1.445703e-21 2.6251931e-05)
(1.0813359 1.4441668e-21 2.6250456e-05)
(1.0812826 0 2.624898e-05)
(1.0812292 0 2.6247505e-05)
(1.0811758 1.4395584e-21 2.6246029e-05)
(1.0811224 -1.4380223e-21 2.6244554e-05)
(1.0810691 -1.4364861e-21 2.6243079e-05)
(1.0810157 0 2.6241603e-05)
(1.0809623 0 2.6240129e-05)
(1.080909 0 2.6238653e-05)
(1.0808556 -1.4303415e-21 2.6237178e-05)
(1.0808022 0 2.6235703e-05)
(1.0807489 0 2.6234228e-05)
(1.0806955 0 2.6232753e-05)
(1.0806421 0 2.6231278e-05)
(1.0805888 -1.422661e-21 2.6229803e-05)
(1.0805354 0 2.6228328e-05)
(1.080482 0 2.6226854e-05)
(1.0804287 0 2.6225378e-05)
(1.0803753 -1.4165165e-21 2.6223904e-05)
(1.080322 -1.4149806e-21 2.622243e-05)
(1.0802686 1.4134444e-21 2.6220955e-05)
(1.0802153 0 2.6219481e-05)
(1.0801619 1.4103723e-21 2.6218006e-05)
(1.0801086 0 2.6216532e-05)
(1.0800552 1.4073e-21 2.6215058e-05)
(1.0800019 0 2.6213584e-05)
(1.0799485 0 2.6212109e-05)
(1.0798952 0 2.6210635e-05)
(1.0798418 0 2.6209161e-05)
(1.0797885 1.3996197e-21 2.6207687e-05)
(1.0797351 0 2.6206213e-05)
(1.0796818 0 2.6204739e-05)
(1.0796284 0 2.6203265e-05)
(1.0795751 1.3934755e-21 2.6201791e-05)
(1.0795218 -1.3919395e-21 2.6200318e-05)
(1.0794684 1.3904034e-21 2.6198843e-05)
(1.0794151 0 2.6197369e-05)
(1.0793618 0 2.6195895e-05)
(1.0793084 0 2.6194421e-05)
(1.0792551 1.3842592e-21 2.6192947e-05)
(1.0792018 0 2.6191473e-05)
(1.0791484 1.3811872e-21 2.6189999e-05)
(1.0790951 0 2.6188525e-05)
(1.0790418 0 2.6187052e-05)
(1.0789884 1.3765791e-21 2.6185577e-05)
(1.0789351 0 2.6184103e-05)
(1.0788818 0 2.618263e-05)
(1.0788285 0 2.6181156e-05)
(1.0787751 1.3704351e-21 2.6179682e-05)
(1.0787218 -1.3688993e-21 2.6178208e-05)
(1.0786685 -1.3673632e-21 2.6176735e-05)
(1.0786152 0 2.6175261e-05)
(1.0785619 0 2.6173788e-05)
(1.0785086 0 2.6172314e-05)
(1.0784552 -1.3612192e-21 2.6170841e-05)
(1.0784019 0 2.6169368e-05)
(1.0783486 0 2.6167894e-05)
(1.0782953 0 2.6166421e-05)
(1.078242 0 2.6164948e-05)
(1.0781887 -1.3535394e-21 2.6163475e-05)
(1.0781354 0 2.6162001e-05)
(1.0780821 0 2.6160529e-05)
(1.0780288 0 2.6159055e-05)
(1.0779755 0 2.6157582e-05)
(1.0779222 -1.3458598e-21 2.6156109e-05)
(1.0778689 1.3443237e-21 2.6154636e-05)
(1.0778156 0 2.6153162e-05)
(1.0777623 0 2.6151689e-05)
(1.077709 0 2.6150216e-05)
(1.0776557 1.33818e-21 2.6148743e-05)
(1.0776024 0 2.6147271e-05)
(1.0775491 0 2.6145797e-05)
(1.0774958 0 2.6144324e-05)
(1.0774425 0 2.6142852e-05)
(1.0773892 1.3305004e-21 2.6141379e-05)
(1.0773359 0 2.6139906e-05)
(1.0772826 0 2.6138433e-05)
(1.0772293 0 2.613696e-05)
(1.077176 1.3243568e-21 2.6135487e-05)
(1.0771228 -1.3228211e-21 2.6134015e-05)
(1.0770695 1.3212851e-21 2.6132542e-05)
(1.0770162 0 2.613107e-05)
(1.0769629 1.3182134e-21 2.6129598e-05)
(1.0769096 0 2.6128126e-05)
(1.0768563 1.3151416e-21 2.6126654e-05)
(1.0768031 0 2.6125181e-05)
(1.0767498 0 2.6123709e-05)
(1.0766965 0 2.6122237e-05)
(1.0766432 0 2.6120766e-05)
(1.07659 1.3074623e-21 2.6119293e-05)
(1.0765367 0 2.6117821e-05)
(1.0764834 0 2.6116349e-05)
(1.0764302 0 2.6114877e-05)
(1.0763769 1.3013189e-21 2.6113406e-05)
(1.0763236 -1.2997832e-21 2.6111934e-05)
(1.0762704 -1.2982472e-21 2.6110462e-05)
(1.0762171 0 2.6108989e-05)
(1.0761638 0 2.6107518e-05)
(1.0761106 0 2.6106046e-05)
(1.0760573 -1.2921039e-21 2.6104574e-05)
(1.076004 0 2.6103102e-05)
(1.0759508 0 2.6101631e-05)
(1.0758975 0 2.6100159e-05)
(1.0758443 0 2.6098687e-05)
(1.075791 0 2.6097215e-05)
(1.0757378 0 2.6095743e-05)
(1.0756845 0 2.6094272e-05)
(1.0756313 0 2.6092799e-05)
(1.075578 -1.2782818e-21 2.6091328e-05)
(1.0755248 -1.2767461e-21 2.6089857e-05)
(1.0754715 1.2752102e-21 2.6088385e-05)
(1.0754183 0 2.6086914e-05)
(1.075365 0 2.6085443e-05)
(1.0753118 0 2.6083971e-05)
(1.0752585 1.2690672e-21 2.60825e-05)
(1.0752053 0 2.608103e-05)
(1.075152 0 2.6079558e-05)
(1.0750988 0 2.6078087e-05)
(1.0750456 0 2.6076616e-05)
(1.0749923 1.2613884e-21 2.6075145e-05)
(1.0749391 0 2.6073674e-05)
(1.0748859 0 2.6072203e-05)
(1.0748326 0 2.6070732e-05)
(1.0747794 0 2.6069261e-05)
(1.0747262 -1.2537099e-21 2.6067791e-05)
(1.0746729 1.252174e-21 2.6066319e-05)
(1.0746197 0 2.6064848e-05)
(1.0745665 0 2.6063377e-05)
(1.0745132 0 2.6061906e-05)
(1.07446 1.2460312e-21 2.6060436e-05)
(1.0744068 0 2.6058965e-05)
(1.0743536 0 2.6057494e-05)
(1.0743003 0 2.6056022e-05)
(1.0742471 0 2.6054552e-05)
(1.0741939 1.2383528e-21 2.6053081e-05)
(1.0741407 0 2.605161e-05)
(1.0740875 0 2.6050139e-05)
(1.0740343 0 2.6048668e-05)
(1.073981 1.2322101e-21 2.6047198e-05)
(1.0739278 -1.2306745e-21 2.6045727e-05)
(1.0738746 -1.2291387e-21 2.6044257e-05)
(1.0738214 0 2.6042786e-05)
(1.0737682 0 2.6041317e-05)
(1.073715 0 2.6039846e-05)
(1.0736618 0 2.6038376e-05)
(1.0736086 0 2.6036906e-05)
(1.0735554 0 2.6035436e-05)
(1.0735022 0 2.6033966e-05)
(1.0734489 0 2.6032496e-05)
(1.0733957 -1.215318e-21 2.6031026e-05)
(1.0733425 0 2.6029556e-05)
(1.0732893 0 2.6028087e-05)
(1.0732361 0 2.6026616e-05)
(1.073183 -1.2091755e-21 2.6025146e-05)
(1.0731298 -1.20764e-21 2.6023677e-05)
(1.0730766 1.2061043e-21 2.6022207e-05)
(1.0730234 0 2.6020737e-05)
(1.0729702 0 2.6019267e-05)
(1.072917 0 2.6017798e-05)
(1.0728638 1.1999619e-21 2.6016328e-05)
(1.0728106 0 2.6014859e-05)
(1.0727574 0 2.6013388e-05)
(1.0727042 0 2.6011919e-05)
(1.072651 0 2.601045e-05)
(1.0725979 0 2.600898e-05)
(1.0725447 0 2.600751e-05)
(1.0724915 0 2.6006041e-05)
(1.0724383 0 2.6004571e-05)
(1.0723851 1.1861418e-21 2.6003102e-05)
(1.072332 -1.1846064e-21 2.6001633e-05)
(1.0722788 1.1830708e-21 2.6000163e-05)
(1.0722256 0 2.5998695e-05)
(1.0721724 0 2.5997226e-05)
(1.0721193 0 2.5995757e-05)
(1.0720661 1.1769286e-21 2.5994288e-05)
(1.0720129 0 2.5992819e-05)
(1.0719597 0 2.5991351e-05)
(1.0719066 0 2.5989882e-05)
(1.0718534 0 2.5988414e-05)
(1.0718002 1.1692511e-21 2.5986944e-05)
(1.0717471 0 2.5985476e-05)
(1.0716939 0 2.5984007e-05)
(1.0716407 0 2.5982539e-05)
(1.0715876 1.1631091e-21 2.598107e-05)
(1.0715344 -1.1615737e-21 2.5979601e-05)
(1.0714813 0 2.5978133e-05)
(1.0714281 0 2.5976664e-05)
(1.071375 0 2.5975196e-05)
(1.0713218 0 2.5973727e-05)
(1.0712686 -1.1538962e-21 2.5972258e-05)
(1.0712155 0 2.597079e-05)
(1.0711623 0 2.5969321e-05)
(1.0711092 0 2.5967853e-05)
(1.071056 0 2.5966384e-05)
(1.0710029 -1.146219e-21 2.5964916e-05)
(1.0709497 0 2.5963447e-05)
(1.0708966 0 2.5961979e-05)
(1.0708434 0 2.596051e-05)
(1.0707903 -1.1400772e-21 2.5959042e-05)
(1.0707372 -1.1385419e-21 2.5957573e-05)
(1.070684 1.1370064e-21 2.5956105e-05)
(1.0706309 0 2.5954637e-05)
(1.0705777 0 2.5953169e-05)
(1.0705246 0 2.5951701e-05)
(1.0704715 1.1308648e-21 2.5950233e-05)
(1.0704183 1.1293295e-21 2.5948766e-05)
(1.0703652 0 2.5947298e-05)
(1.0703121 0 2.594583e-05)
(1.0702589 0 2.5944363e-05)
(1.0702058 1.1231878e-21 2.5942895e-05)
(1.0701527 0 2.5941427e-05)
(1.0700995 0 2.593996e-05)
(1.0700464 0 2.5938492e-05)
(1.0699933 1.1170464e-21 2.5937024e-05)
(1.0699402 -1.1155111e-21 2.5935558e-05)
(1.069887 1.1139756e-21 2.5934089e-05)
(1.0698339 0 2.5932622e-05)
(1.0697808 0 2.5931155e-05)
(1.0697277 0 2.5929688e-05)
(1.0696746 1.1078343e-21 2.5928221e-05)
(1.0696214 0 2.5926753e-05)
(1.0695683 0 2.5925286e-05)
(1.0695152 0 2.5923819e-05)
(1.0694621 0 2.5922353e-05)
(1.069409 1.1001576e-21 2.5920885e-05)
(1.0693559 1.0986223e-21 2.5919418e-05)
(1.0693028 0 2.5917951e-05)
(1.0692497 0 2.5916484e-05)
(1.0691965 1.0940164e-21 2.5915017e-05)
(1.0691434 -1.0924812e-21 2.591355e-05)
(1.0690903 -1.0909458e-21 2.5912083e-05)
(1.0690372 0 2.5910616e-05)
(1.0689841 0 2.5909151e-05)
(1.068931 0 2.5907683e-05)
(1.0688779 -1.0848047e-21 2.5906217e-05)
(1.0688248 0 2.5904751e-05)
(1.0687717 0 2.5903285e-05)
(1.0687186 0 2.5901819e-05)
(1.0686655 0 2.5900352e-05)
(1.0686124 -1.0771284e-21 2.5898886e-05)
(1.0685593 0 2.589742e-05)
(1.0685062 0 2.5895954e-05)
(1.0684532 0 2.5894487e-05)
(1.0684001 -1.0709874e-21 2.5893022e-05)
(1.068347 -1.0694523e-21 2.5891556e-05)
(1.0682939 1.067917e-21 2.5890089e-05)
(1.0682408 -1.0663818e-21 2.5888623e-05)
(1.0681877 0 2.5887157e-05)
(1.0681346 0 2.5885691e-05)
(1.0680815 1.0617761e-21 2.5884225e-05)
(1.0680285 0 2.588276e-05)
(1.0679754 0 2.5881293e-05)
(1.0679223 0 2.5879828e-05)
(1.0678692 0 2.5878362e-05)
(1.0678161 1.0541002e-21 2.5876896e-05)
(1.0677631 0 2.587543e-05)
(1.06771 0 2.5873964e-05)
(1.0676569 0 2.5872498e-05)
(1.0676039 1.0479595e-21 2.5871032e-05)
(1.0675508 -1.0464244e-21 2.5869567e-05)
(1.0674977 1.0448892e-21 2.58681e-05)
(1.0674446 0 2.5866635e-05)
(1.0673916 0 2.586517e-05)
(1.0673385 0 2.5863705e-05)
(1.0672854 1.0387486e-21 2.586224e-05)
(1.0672324 0 2.5860774e-05)
(1.0671793 1.0356783e-21 2.5859309e-05)
(1.0671263 0 2.5857844e-05)
(1.0670732 0 2.585638e-05)
(1.0670201 1.0310729e-21 2.5854914e-05)
(1.0669671 0 2.5853449e-05)
(1.066914 0 2.5851984e-05)
(1.066861 0 2.5850519e-05)
(1.0668079 1.0249325e-21 2.5849054e-05)
(1.0667549 -1.0233975e-21 2.5847589e-05)
(1.0667018 -1.0218623e-21 2.5846124e-05)
(1.0666487 0 2.5844659e-05)
(1.0665957 0 2.5843195e-05)
(1.0665426 0 2.5841729e-05)
(1.0664896 -1.015722e-21 2.5840265e-05)
(1.0664366 0 2.58388e-05)
(1.0663835 0 2.5837335e-05)
(1.0663305 0 2.5835871e-05)
(1.0662774 0 2.5834406e-05)
(1.0662244 -1.0080467e-21 2.5832942e-05)
(1.0661713 0 2.5831476e-05)
(1.0661183 0 2.5830013e-05)
(1.0660653 -1.0034416e-21 2.5828547e-05)
(1.0660122 -1.0019066e-21 2.5827083e-05)
(1.0659592 -1.0003716e-21 2.5825618e-05)
(1.0659062 9.988365e-22 2.5824154e-05)
(1.0658531 0 2.582269e-05)
(1.0658001 0 2.5821226e-05)
(1.0657471 0 2.5819762e-05)
(1.065694 9.9269646e-22 2.5818298e-05)
(1.065641 0 2.5816835e-05)
(1.065588 0 2.581537e-05)
(1.0655349 0 2.5813906e-05)
(1.0654819 0 2.5812443e-05)
(1.0654289 9.8502152e-22 2.5810979e-05)
(1.0653759 0 2.5809515e-05)
(1.0653229 0 2.5808051e-05)
(1.0652698 0 2.5806588e-05)
(1.0652168 9.7888164e-22 2.5805123e-05)
(1.0651638 -9.7734677e-22 2.5803661e-05)
(1.0651108 9.7581174e-22 2.5802196e-05)
(1.0650578 9.7427679e-22 2.5800733e-05)
(1.0650048 0 2.5799269e-05)
(1.0649517 0 2.5797806e-05)
(1.0648987 9.6967198e-22 2.5796342e-05)
(1.0648457 0 2.5794878e-05)
(1.0647927 0 2.5793415e-05)
(1.0647397 0 2.5791951e-05)
(1.0646867 0 2.5790489e-05)
(1.0646337 9.6199738e-22 2.5789024e-05)
(1.0645807 0 2.5787561e-05)
(1.0645277 0 2.5786097e-05)
(1.0644747 0 2.5784634e-05)
(1.0644217 9.5585779e-22 2.578317e-05)
(1.0643687 -9.5432299e-22 2.5781707e-05)
(1.0643157 -9.5278802e-22 2.5780244e-05)
(1.0642627 0 2.577878e-05)
(1.0642097 0 2.5777318e-05)
(1.0641567 0 2.5775854e-05)
(1.0641037 -9.4664855e-22 2.5774392e-05)
(1.0640507 0 2.5772929e-05)
(1.0639977 0 2.5771466e-05)
(1.0639447 0 2.5770004e-05)
(1.0638917 9.4050923e-22 2.5768541e-05)
(1.0638387 -9.3897431e-22 2.5767078e-05)
(1.0637858 0 2.5765615e-05)
(1.0637328 0 2.5764153e-05)
(1.0636798 0 2.576269e-05)