/*--------------------------------*- C++ -*----------------------------------*\
  =========                 |
  \\      /  F ield         | OpenFOAM: The Open Source CFD Toolbox
   \\    /   O peration     | Website:  https://openfoam.org
    \\  /    A nd           | Version:  6
     \\/     M anipulation  |
\*---------------------------------------------------------------------------*/
FoamFile
{
    version     2.0;
    format      ascii;
    class       volScalarField;
    location    "10000";
    object      p;
}
// * * * * * * * * * * * * * * * * * * * * * * * * * * * * * * * * * * * * * //

dimensions      [0 2 -2 0 0 0 0];

internalField   nonuniform List<scalar> 
22500
(
21741384
21709766
21682119
21657033
21633172
21610503
21589005
21568573
21549094
21530458
21512559
21495298
21478582
21462331
21446471
21430939
21415679
21400644
21385794
21371094
21356516
21342036
21327633
21313291
21298998
21284740
21270510
21256300
21242105
21227919
21213739
21199561
21185385
21171207
21157028
21142845
21128658
21114467
21100272
21086072
21071868
21057659
21043446
21029229
21015008
21000784
20986555
20972324
20958090
20943853
20929613
20915371
20901127
20886881
20872633
20858384
20844133
20829880
20815626
20801372
20787116
20772859
20758601
20744342
20730083
20715823
20701562
20687301
20673039
20658777
20644514
20630251
20615987
20601723
20587458
20573193
20558928
20544662
20530396
20516130
20501864
20487597
20473330
20459062
20444794
20430526
20416258
20401990
20387721
20373452
20359182
20344913
20330643
20316373
20302103
20287832
20273561
20259290
20245019
20230748
20216476
20202204
20187931
20173659
20159386
20145113
20130840
20116566
20102293
20088019
20073745
20059470
20045195
20030921
20016645
20002370
19988094
19973818
19959542
19945266
19930989
19916712
19902435
19888158
19873880
19859603
19845325
19831046
19816768
19802489
19788210
19773931
19759651
19745371
19731091
19716811
19702531
19688250
19673969
19659688
19645406
19631125
19616843
19602561
19588278
19573996
19559713
19545430
19531146
19516863
19502579
19488295
19474010
19459726
19445441
19431156
19416871
19402585
19388299
19374013
19359727
19345441
19331154
19316867
19302580
19288292
19274004
19259717
19245428
19231140
19216851
19202562
19188273
19173984
19159694
19145404
19131114
19116824
19102533
19088242
19073951
19059660
19045368
19031077
19016784
19002492
18988200
18973907
18959614
18945321
18931027
18916733
18902439
18888145
18873851
18859556
18845261
18830966
18816670
18802375
18788079
18773783
18759486
18745190
18730893
18716595
18702298
18688000
18673703
18659405
18645106
18630808
18616509
18602210
18587910
18573611
18559311
18545011
18530711
18516410
18502109
18487808
18473507
18459206
18444904
18430602
18416300
18401997
18387695
18373392
18359088
18344785
18330481
18316177
18301873
18287569
18273264
18258959
18244654
18230349
18216043
18201737
18187431
18173125
18158818
18144511
18130204
18115897
18101590
18087282
18072974
18058665
18044357
18030048
18015739
18001430
17987120
17972811
17958501
17944190
17929880
17915569
17901258
17886947
17872636
17858324
17844012
17829700
17815387
17801075
17786762
17772449
17758135
17743822
17729508
17715194
17700879
17686565
17672250
17657935
17643619
17629304
17614988
17600672
17586356
17572039
17557722
17543405
17529088
17514770
17500453
17486135
17471816
17457498
17443179
17428860
17414541
17400222
17385902
17371582
17357262
17342941
17328621
17314300
17299978
17285657
17271335
17257013
17242691
17228369
17214046
17199723
17185400
17171077
17156753
17142429
17128105
17113781
17099456
17085131
17070806
17056481
17042156
17027830
17013504
16999177
16984851
16970524
16956197
16941870
16927542
16913214
16898886
16884558
16870230
16855901
16841572
16827243
16812913
16798584
16784254
16769923
16755593
16741262
16726931
16712600
16698269
16683937
16669605
16655273
16640941
16626608
16612275
16597942
16583608
16569275
16554941
16540607
16526272
16511938
16497603
16483268
16468933
16454597
16440261
16425925
16411589
16397252
16382915
16368578
16354241
16339903
16325566
16311228
16296889
16282551
16268212
16253873
16239534
16225194
16210855
16196515
16182174
16167834
16153493
16139152
16124811
16110470
16096128
16081786
16067444
16053101
16038759
16024416
16010072
15995729
15981385
15967041
15952697
15938353
15924008
15909663
15895318
15880973
15866627
15852281
15837935
15823589
15809242
15794895
15780548
15766201
15751853
15737505
15723157
15708809
15694460
15680112
15665763
15651413
15637064
15622714
15608364
15594014
15579663
15565312
15550961
15536610
15522258
15507907
15493555
15479202
15464850
15450497
15436144
15421791
15407437
15393084
15378730
15364375
15350021
15335666
15321311
15306956
15292601
15278245
15263889
15249533
15235176
15220820
15206463
15192106
15177748
15163390
15149032
15134674
15120316
15105957
15091598
15077239
15062880
15048520
15034160
15019800
15005440
14991079
14976718
14962357
14947996
14933634
14919272
14904910
14890548
14876185
14861822
14847459
14833096
14818732
14804369
14790004
14775640
14761276
14746911
14732546
14718180
14703815
14689449
14675083
14660717
14646350
14631983
14617616
14603249
14588881
14574514
14560146
14545777
14531409
14517040
14502671
14488302
14473932
14459563
14445193
14430822
14416452
14402081
14387710
14373339
14358967
14344596
14330224
14315851
14301479
14287106
14272733
14258360
14243987
14229613
14215239
14200865
14186490
14172116
14157741
14143365
14128990
14114614
14100238
14085862
14071486
14057109
14042732
14028355
14013978
13999600
13985222
13970844
13956465
13942087
13927708
13913329
13898949
13884570
13870190
13855810
13841429
13827049
13812668
13798287
13783905
13769524
13755142
13740760
13726377
13711995
13697612
13683229
13668845
13654462
13640078
13625694
13611309
13596925
13582540
13568155
13553769
13539384
13524998
13510612
13496226
13481839
13467452
13453065
13438678
13424290
13409902
13395514
13381126
13366737
13352348
13337959
13323570
13309181
13294791
13280401
13266010
13251620
13237229
13222838
13208447
13194055
13179663
13165271
13150879
13136486
13122094
13107700
13093307
13078914
13064520
13050126
13035732
13021337
13006942
12992547
12978152
12963756
12949361
12934965
12920568
12906172
12891775
12877378
12862981
12848583
12834185
12819787
12805389
12790991
12776592
12762193
12747794
12733394
12718994
12704594
12690194
12675793
12661393
12646992
12632590
12618189
12603787
12589385
12574983
12560580
12546178
12531775
12517371
12502968
12488564
12474160
12459756
12445351
12430947
12416542
12402136
12387731
12373325
12358919
12344513
12330106
12315700
12301293
12286885
12272478
12258070
12243662
12229254
12214845
12200437
12186028
12171619
12157209
12142799
12128389
12113979
12099569
12085158
12070747
12056336
12041924
12027512
12013100
11998688
11984276
11969863
11955450
11941037
11926623
11912209
11897795
11883381
11868967
11854552
11840137
11825722
11811306
11796891
11782475
11768058
11753642
11739225
11724808
11710391
11695973
11681556
11667138
11652719
11638301
11623882
11609463
11595044
11580624
11566205
11551785
11537365
11522944
11508523
11494102
11479681
11465260
11450838
11436416
11421994
11407571
11393148
11378725
11364302
11349879
11335455
11321031
11306607
11292182
11277757
11263332
11248907
11234482
11220056
11205630
11191204
11176777
11162350
11147923
11133496
11119068
11104641
11090213
11075784
11061356
11046927
11032498
11018069
11003639
10989210
10974780
10960349
10945919
10931488
10917057
10902626
10888194
10873762
10859330
10844898
10830465
10816033
10801600
10787166
10772733
10758299
10743865
10729431
10714996
10700561
10686126
10671691
10657255
10642820
10628384
10613947
10599511
10585074
10570637
10556200
10541762
10527324
10512886
10498448
10484009
10469570
10455131
10440692
10426252
10411813
10397373
10382932
10368492
10354051
10339610
10325168
10310727
10296285
10281843
10267400
10252958
10238515
10224072
10209629
10195185
10180741
10166297
10151853
10137408
10122963
10108518
10094073
10079627
10065181
10050735
10036289
10021842
10007395
9992947.9
9978500.5
9964052.9
9949605
9935156.9
9920708.5
9906259.8
9891810.9
9877361.7
9862912.3
9848462.7
9834012.7
9819562.6
9805112.2
9790661.5
9776210.6
9761759.4
9747308
9732856.3
9718404.3
9703952.1
9689499.7
9675047
9660594.1
9646140.9
9631687.4
9617233.7
9602779.8
9588325.5
9573871.1
9559416.4
9544961.4
9530506.2
9516050.7
9501595
9487139
9472682.8
9458226.3
9443769.5
9429312.5
9414855.3
9400397.8
9385940.1
9371482.1
9357023.8
9342565.3
9328106.5
9313647.5
9299188.2
9284728.7
9270268.9
9255808.9
9241348.6
9226888.1
9212427.3
9197966.3
9183505
9169043.4
9154581.6
9140119.6
9125657.3
9111194.7
9096731.9
9082268.8
9067805.5
9053341.9
9038878.1
9024414
9009949.7
8995485.1
8981020.2
8966555.2
8952089.8
8937624.2
8923158.3
8908692.2
8894225.9
8879759.3
8865292.4
8850825.3
8836357.9
8821890.3
8807422.4
8792954.2
8778485.8
8764017.2
8749548.3
8735079.1
8720609.7
8706140.1
8691670.1
8677200
8662729.6
8648258.9
8633787.9
8619316.8
8604845.3
8590373.6
8575901.7
8561429.5
8546957
8532484.3
8518011.3
8503538.1
8489064.7
8474590.9
8460117
8445642.7
8431168.2
8416693.5
8402218.5
8387743.2
8373267.7
8358792
8344316
8329839.7
8315363.2
8300886.4
8286409.4
8271932.1
8257454.5
8242976.7
8228498.7
8214020.4
8199541.8
8185063
8170584
8156104.6
8141625.1
8127145.2
8112665.1
8098184.8
8083704.2
8069223.4
8054742.3
8040260.9
8025779.3
8011297.4
7996815.3
7982332.9
7967850.3
7953367.4
7938884.3
7924400.9
7909917.2
7895433.3
7880949.2
7866464.7
7851980.1
7837495.2
7823010
7808524.5
7794038.8
7779552.9
7765066.7
7750580.3
7736093.5
7721606.6
7707119.4
7692631.9
7678144.2
7663656.2
7649167.9
7634679.4
7620190.7
7605701.7
7591212.4
7576722.9
7562233.1
7547743.1
7533252.8
7518762.3
7504271.5
7489780.4
7475289.1
7460797.6
7446305.8
7431813.7
7417321.4
7402828.8
7388336
7373842.9
7359349.5
7344855.9
7330362.1
7315868
7301373.6
7286879
7272384.1
7257889
7243393.6
7228897.9
7214402
7199905.9
7185409.4
7170912.8
7156415.9
7141918.7
7127421.2
7112923.5
7098425.6
7083927.4
7069428.9
7054930.2
7040431.2
7025932
7011432.5
6996932.8
6982432.8
6967932.6
6953432
6938931.3
6924430.3
6909929
6895427.5
6880925.7
6866423.6
6851921.3
6837418.8
6822916
6808412.9
6793909.6
6779406
6764902.2
6750398.1
6735893.7
6721389.1
6706884.3
6692379.1
6677873.8
6663368.1
6648862.2
6634356.1
6619849.7
6605343
6590836.1
6576329
6561821.5
6547313.9
6532805.9
6518297.7
6503789.3
6489280.6
6474771.6
6460262.4
6445752.9
6431243.2
6416733.2
6402222.9
6387712.4
6373201.7
6358690.7
6344179.4
6329667.9
6315156.1
6300644
6286131.7
6271619.2
6257106.4
6242593.3
6228080
6213566.4
6199052.5
6184538.4
6170024.1
6155509.5
6140994.6
6126479.5
6111964.1
6097448.4
6082932.5
6068416.4
6053900
6039383.3
6024866.4
6010349.2
5995831.8
5981314.1
5966796.1
5952277.9
5937759.4
5923240.7
5908721.7
5894202.5
5879683
5865163.2
5850643.2
5836122.9
5821602.4
5807081.6
5792560.6
5778039.3
5763517.7
5748995.9
5734473.8
5719951.5
5705428.9
5690906.1
5676383
5661859.6
5647336
5632812.1
5618288
5603763.6
5589238.9
5574714
5560188.9
5545663.5
5531137.8
5516611.8
5502085.6
5487559.2
5473032.5
5458505.5
5443978.3
5429450.8
5414923.1
5400395.1
5385866.8
5371338.3
5356809.5
5342280.5
5327751.2
5313221.7
5298691.8
5284161.8
5269631.5
5255100.9
5240570
5226039
5211507.6
5196976
5182444.1
5167912
5153379.6
5138847
5124314.1
5109780.9
5095247.5
5080713.8
5066179.9
5051645.7
5037111.2
5022576.5
5008041.5
4993506.3
4978970.8
4964435.1
4949899.1
4935362.8
4920826.3
4906289.5
4891752.5
4877215.2
4862677.6
4848139.8
4833601.7
4819063.4
4804524.8
4789986
4775446.9
4760907.5
4746367.9
4731828
4717287.9
4702747.5
4688206.8
4673665.9
4659124.7
4644583.3
4630041.6
4615499.6
4600957.4
4586415
4571872.2
4557329.2
4542786
4528242.5
4513698.7
4499154.7
4484610.4
4470065.9
4455521.1
4440976
4426430.7
4411885.1
4397339.3
4382793.2
4368246.8
4353700.2
4339153.3
4324606.2
4310058.8
4295511.2
4280963.3
4266415.1
4251866.7
4237318
4222769
4208219.8
4193670.3
4179120.6
4164570.6
4150020.4
4135469.9
4120919.1
4106368.1
4091816.8
4077265.3
4062713.5
4048161.4
4033609.1
4019056.5
4004503.7
3989950.6
3975397.2
3960843.6
3946289.7
3931735.6
3917181.2
3902626.5
3888071.6
3873516.4
3858961
3844405.3
3829849.3
3815293.1
3800736.6
3786179.9
3771622.9
3757065.6
3742508.1
3727950.3
3713392.3
3698834
3684275.5
3669716.6
3655157.6
3640598.2
3626038.6
3611478.8
3596918.7
3582358.3
3567797.6
3553236.7
3538675.6
3524114.2
3509552.5
3494990.5
3480428.3
3465865.9
3451303.2
3436740.2
3422176.9
3407613.4
3393049.7
3378485.7
3363921.4
3349356.8
3334792
3320227
3305661.6
3291096.1
3276530.2
3261964.1
3247397.7
3232831.1
3218264.2
3203697.1
3189129.7
3174562
3159994.1
3145425.9
3130857.4
3116288.7
3101719.8
3087150.5
3072581
3058011.3
3043441.3
3028871
3014300.4
2999729.6
2985158.6
2970587.3
2956015.7
2941443.8
2926871.7
2912299.4
2897726.7
2883153.9
2868580.7
2854007.3
2839433.6
2824859.7
2810285.5
2795711.1
2781136.3
2766561.4
2751986.1
2737410.6
2722834.9
2708258.9
2693682.6
2679106
2664529.2
2649952.2
2635374.8
2620797.2
2606219.4
2591641.3
2577062.9
2562484.3
2547905.4
2533326.2
2518746.8
2504167.1
2489587.2
2475007
2460426.5
2445845.8
2431264.8
2416683.6
2402102.1
2387520.3
2372938.3
2358356
2343773.4
2329190.6
2314607.5
2300024.2
2285440.6
2270856.7
2256272.6
2241688.2
2227103.5
2212518.6
2197933.4
2183348
2168762.3
2154176.3
2139590.1
2125003.6
2110416.9
2095829.9
2081242.6
2066655.1
2052067.3
2037479.2
2022890.9
2008302.3
1993713.5
1979124.4
1964535
1949945.4
1935355.5
1920765.3
1906174.9
1891584.2
1876993.3
1862402.1
1847810.6
1833218.9
1818626.9
1804034.6
1789442.1
1774849.3
1760256.3
1745663
1731069.4
1716475.6
1701881.5
1687287.2
1672692.6
1658097.7
1643502.5
1628907.1
1614311.5
1599715.5
1585119.3
1570522.9
1555926.2
1541329.2
1526732
1512134.4
1497536.7
1482938.6
1468340.4
1453741.8
1439143
1424543.9
1409944.6
1395344.9
1380745.1
1366144.9
1351544.5
1336943.9
1322343
1307741.8
1293140.3
1278538.6
1263936.6
1249334.4
1234731.9
1220129.1
1205526.1
1190922.8
1176319.3
1161715.5
1147111.4
1132507
1117902.4
1103297.6
1088692.4
1074087
1059481.4
1044875.4
1030269.3
1015662.8
1001056.1
986449.12
971841.88
957234.38
942626.61
928018.58
913410.28
898801.73
884192.91
869583.82
854974.47
840364.86
825754.98
811144.84
796534.44
781923.77
767312.84
752701.64
738090.18
723478.46
708866.47
694254.22
679641.7
665028.92
650415.88
635802.57
621188.99
606575.15
591961.05
577346.68
562732.05
548117.15
533501.98
518886.55
504270.86
489654.9
475038.67
460422.18
445805.43
431188.4
416571.12
401953.56
387335.75
372717.66
358099.32
343480.71
328861.84
314242.71
299623.31
285003.67
270383.76
255763.61
241143.21
226522.57
211901.69
197280.58
182659.26
168037.73
153416
138794.1
124172.04
109549.84
94927.533
80305.121
65682.729
51061.039
36438.735
21802.514
7185.1448
21739482
21708788
21680778
21655628
21631858
21609285
21587887
21567562
21548194
21529666
21511869
21494703
21478073
21461899
21446107
21430634
21415425
21400434
21385621
21370953
21356401
21341943
21327559
21313233
21298952
21284705
21270483
21256280
21242090
21227909
21213732
21199558
21185383
21171207
21157029
21142847
21128661
21114471
21100276
21086076
21071872
21057663
21043450
21029233
21015012
21000787
20986559
20972327
20958093
20943855
20929616
20915373
20901129
20886883
20872635
20858385
20844134
20829881
20815628
20801373
20787117
20772860
20758602
20744343
20730084
20715824
20701563
20687302
20673040
20658777
20644514
20630251
20615987
20601723
20587458
20573194
20558928
20544663
20530397
20516130
20501864
20487597
20473330
20459062
20444795
20430527
20416258
20401990
20387721
20373452
20359183
20344913
20330643
20316373
20302103
20287832
20273562
20259291
20245019
20230748
20216476
20202204
20187932
20173659
20159386
20145113
20130840
20116567
20102293
20088019
20073745
20059470
20045196
20030921
20016646
20002370
19988095
19973819
19959543
19945266
19930990
19916713
19902436
19888158
19873881
19859603
19845325
19831046
19816768
19802489
19788210
19773931
19759651
19745372
19731092
19716811
19702531
19688250
19673969
19659688
19645407
19631125
19616843
19602561
19588278
19573996
19559713
19545430
19531146
19516863
19502579
19488295
19474011
19459726
19445441
19431156
19416871
19402585
19388300
19374014
19359727
19345441
19331154
19316867
19302580
19288292
19274005
19259717
19245429
19231140
19216851
19202563
19188273
19173984
19159694
19145405
19131114
19116824
19102533
19088243
19073951
19059660
19045369
19031077
19016785
19002492
18988200
18973907
18959614
18945321
18931027
18916734
18902440
18888145
18873851
18859556
18845261
18830966
18816671
18802375
18788079
18773783
18759486
18745190
18730893
18716596
18702298
18688001
18673703
18659405
18645106
18630808
18616509
18602210
18587911
18573611
18559311
18545011
18530711
18516410
18502110
18487809
18473507
18459206
18444904
18430602
18416300
18401998
18387695
18373392
18359089
18344785
18330482
18316178
18301874
18287569
18273264
18258960
18244654
18230349
18216043
18201738
18187432
18173125
18158819
18144512
18130205
18115897
18101590
18087282
18072974
18058666
18044357
18030048
18015739
18001430
17987121
17972811
17958501
17944191
17929880
17915569
17901259
17886947
17872636
17858324
17844012
17829700
17815388
17801075
17786762
17772449
17758136
17743822
17729508
17715194
17700880
17686565
17672250
17657935
17643620
17629304
17614988
17600672
17586356
17572039
17557723
17543406
17529088
17514771
17500453
17486135
17471817
17457498
17443179
17428860
17414541
17400222
17385902
17371582
17357262
17342941
17328621
17314300
17299979
17285657
17271336
17257014
17242692
17228369
17214046
17199724
17185400
17171077
17156753
17142430
17128106
17113781
17099457
17085132
17070807
17056481
17042156
17027830
17013504
16999178
16984851
16970524
16956197
16941870
16927542
16913215
16898887
16884558
16870230
16855901
16841572
16827243
16812913
16798584
16784254
16769924
16755593
16741262
16726932
16712600
16698269
16683937
16669605
16655273
16640941
16626608
16612275
16597942
16583609
16569275
16554941
16540607
16526273
16511938
16497603
16483268
16468933
16454597
16440261
16425925
16411589
16397252
16382916
16368579
16354241
16339904
16325566
16311228
16296890
16282551
16268212
16253873
16239534
16225195
16210855
16196515
16182175
16167834
16153493
16139152
16124811
16110470
16096128
16081786
16067444
16053101
16038759
16024416
16010073
15995729
15981386
15967042
15952698
15938353
15924008
15909664
15895318
15880973
15866627
15852282
15837935
15823589
15809242
15794896
15780548
15766201
15751854
15737506
15723158
15708809
15694461
15680112
15665763
15651414
15637064
15622714
15608364
15594014
15579663
15565312
15550961
15536610
15522259
15507907
15493555
15479203
15464850
15450497
15436144
15421791
15407438
15393084
15378730
15364376
15350021
15335666
15321312
15306956
15292601
15278245
15263889
15249533
15235177
15220820
15206463
15192106
15177748
15163391
15149033
15134675
15120316
15105958
15091599
15077239
15062880
15048520
15034161
15019800
15005440
14991079
14976719
14962357
14947996
14933634
14919273
14904910
14890548
14876186
14861823
14847460
14833096
14818733
14804369
14790005
14775640
14761276
14746911
14732546
14718181
14703815
14689449
14675083
14660717
14646350
14631984
14617617
14603249
14588882
14574514
14560146
14545778
14531409
14517040
14502671
14488302
14473933
14459563
14445193
14430823
14416452
14402081
14387710
14373339
14358968
14344596
14330224
14315852
14301479
14287107
14272734
14258360
14243987
14229613
14215239
14200865
14186491
14172116
14157741
14143366
14128990
14114615
14100239
14085862
14071486
14057109
14042732
14028355
14013978
13999600
13985222
13970844
13956466
13942087
13927708
13913329
13898950
13884570
13870190
13855810
13841430
13827049
13812668
13798287
13783905
13769524
13755142
13740760
13726377
13711995
13697612
13683229
13668846
13654462
13640078
13625694
13611310
13596925
13582540
13568155
13553770
13539384
13524998
13510612
13496226
13481839
13467452
13453065
13438678
13424290
13409903
13395514
13381126
13366738
13352349
13337960
13323570
13309181
13294791
13280401
13266011
13251620
13237229
13222838
13208447
13194055
13179664
13165271
13150879
13136487
13122094
13107701
13093307
13078914
13064520
13050126
13035732
13021337
13006942
12992547
12978152
12963757
12949361
12934965
12920569
12906172
12891775
12877378
12862981
12848583
12834186
12819788
12805389
12790991
12776592
12762193
12747794
12733394
12718994
12704594
12690194
12675794
12661393
12646992
12632591
12618189
12603787
12589385
12574983
12560581
12546178
12531775
12517372
12502968
12488564
12474160
12459756
12445352
12430947
12416542
12402137
12387731
12373325
12358919
12344513
12330107
12315700
12301293
12286886
12272478
12258070
12243662
12229254
12214846
12200437
12186028
12171619
12157209
12142800
12128390
12113979
12099569
12085158
12070747
12056336
12041924
12027513
12013101
11998688
11984276
11969863
11955450
11941037
11926623
11912210
11897796
11883382
11868967
11854552
11840137
11825722
11811307
11796891
11782475
11768059
11753642
11739225
11724808
11710391
11695974
11681556
11667138
11652720
11638301
11623882
11609463
11595044
11580625
11566205
11551785
11537365
11522944
11508524
11494103
11479681
11465260
11450838
11436416
11421994
11407571
11393149
11378726
11364302
11349879
11335455
11321031
11306607
11292182
11277758
11263333
11248907
11234482
11220056
11205630
11191204
11176777
11162351
11147923
11133496
11119069
11104641
11090213
11075785
11061356
11046927
11032498
11018069
11003640
10989210
10974780
10960350
10945919
10931488
10917057
10902626
10888194
10873763
10859331
10844898
10830466
10816033
10801600
10787167
10772733
10758299
10743865
10729431
10714996
10700562
10686127
10671691
10657256
10642820
10628384
10613948
10599511
10585074
10570637
10556200
10541762
10527324
10512886
10498448
10484009
10469571
10455132
10440692
10426253
10411813
10397373
10382932
10368492
10354051
10339610
10325169
10310727
10296285
10281843
10267401
10252958
10238515
10224072
10209629
10195185
10180741
10166297
10151853
10137408
10122963
10108518
10094073
10079627
10065181
10050735
10036289
10021842
10007395
9992948.2
9978500.8
9964053.2
9949605.3
9935157.1
9920708.7
9906260.1
9891811.2
9877362
9862912.6
9848462.9
9834013
9819562.8
9805112.4
9790661.7
9776210.8
9761759.6
9747308.2
9732856.5
9718404.6
9703952.4
9689500
9675047.3
9660594.3
9646141.1
9631687.7
9617234
9602780
9588325.8
9573871.3
9559416.6
9544961.7
9530506.4
9516051
9501595.2
9487139.3
9472683
9458226.5
9443769.8
9429312.8
9414855.6
9400398.1
9385940.3
9371482.3
9357024.1
9342565.6
9328106.8
9313647.8
9299188.5
9284729
9270269.2
9255809.2
9241348.9
9226888.4
9212427.6
9197966.5
9183505.2
9169043.7
9154581.9
9140119.8
9125657.5
9111195
9096732.2
9082269.1
9067805.8
9053342.2
9038878.4
9024414.3
9009949.9
8995485.4
8981020.5
8966555.4
8952090.1
8937624.5
8923158.6
8908692.5
8894226.1
8879759.5
8865292.6
8850825.5
8836358.1
8821890.5
8807422.6
8792954.5
8778486.1
8764017.4
8749548.5
8735079.4
8720610
8706140.3
8691670.4
8677200.2
8662729.8
8648259.1
8633788.2
8619317
8604845.6
8590373.9
8575901.9
8561429.7
8546957.3
8532484.6
8518011.6
8503538.4
8489064.9
8474591.2
8460117.2
8445643
8431168.5
8416693.8
8402218.8
8387743.5
8373268
8358792.2
8344316.2
8329840
8315363.4
8300886.7
8286409.6
8271932.3
8257454.8
8242977
8228499
8214020.7
8199542.1
8185063.3
8170584.2
8156104.9
8141625.3
8127145.5
8112665.4
8098185.1
8083704.5
8069223.6
8054742.5
8040261.2
8025779.6
8011297.7
7996815.6
7982333.2
7967850.6
7953367.7
7938884.5
7924401.1
7909917.5
7895433.6
7880949.4
7866465
7851980.3
7837495.4
7823010.2
7808524.8
7794039.1
7779553.2
7765067
7750580.5
7736093.8
7721606.8
7707119.6
7692632.1
7678144.4
7663656.4
7649168.2
7634679.7
7620190.9
7605701.9
7591212.7
7576723.2
7562233.4
7547743.4
7533253.1
7518762.6
7504271.8
7489780.7
7475289.4
7460797.9
7446306
7431814
7417321.6
7402829.1
7388336.2
7373843.1
7359349.8
7344856.2
7330362.3
7315868.2
7301373.9
7286879.2
7272384.4
7257889.2
7243393.8
7228898.2
7214402.3
7199906.1
7185409.7
7170913
7156416.1
7141918.9
7127421.5
7112923.8
7098425.9
7083927.7
7069429.2
7054930.5
7040431.5
7025932.3
7011432.8
6996933.1
6982433.1
6967932.8
6953432.3
6938931.5
6924430.5
6909929.3
6895427.7
6880925.9
6866423.9
6851921.6
6837419
6822916.2
6808413.2
6793909.8
6779406.3
6764902.4
6750398.3
6735894
6721389.4
6706884.5
6692379.4
6677874
6663368.4
6648862.5
6634356.4
6619850
6605343.3
6590836.4
6576329.2
6561821.8
6547314.1
6532806.2
6518298
6503789.5
6489280.8
6474771.9
6460262.7
6445753.2
6431243.4
6416733.4
6402223.2
6387712.7
6373201.9
6358690.9
6344179.6
6329668.1
6315156.3
6300644.3
6286132
6271619.4
6257106.6
6242593.5
6228080.2
6213566.6
6199052.8
6184538.7
6170024.3
6155509.7
6140994.9
6126479.7
6111964.3
6097448.7
6082932.8
6068416.6
6053900.2
6039383.6
6024866.6
6010349.5
5995832
5981314.3
5966796.4
5952278.2
5937759.7
5923241
5908722
5894202.7
5879683.2
5865163.5
5850643.5
5836123.2
5821602.7
5807081.9
5792560.8
5778039.5
5763518
5748996.2
5734474.1
5719951.8
5705429.2
5690906.3
5676383.2
5661859.9
5647336.3
5632812.4
5618288.2
5603763.9
5589239.2
5574714.3
5560189.1
5545663.7
5531138
5516612.1
5502085.9
5487559.5
5473032.7
5458505.8
5443978.5
5429451.1
5414923.3
5400395.3
5385867.1
5371338.6
5356809.8
5342280.8
5327751.5
5313221.9
5298692.1
5284162
5269631.7
5255101.1
5240570.3
5226039.2
5211507.9
5196976.2
5182444.4
5167912.3
5153379.9
5138847.2
5124314.3
5109781.2
5095247.7
5080714.1
5066180.1
5051645.9
5037111.5
5022576.8
5008041.8
4993506.6
4978971.1
4964435.3
4949899.3
4935363.1
4920826.6
4906289.8
4891752.7
4877215.4
4862677.9
4848140.1
4833602
4819063.7
4804525.1
4789986.2
4775447.1
4760907.8
4746368.2
4731828.3
4717288.1
4702747.7
4688207.1
4673666.2
4659125
4644583.5
4630041.9
4615499.9
4600957.7
4586415.2
4571872.5
4557329.5
4542786.3
4528242.8
4513699
4499155
4484610.7
4470066.1
4455521.3
4440976.3
4426431
4411885.4
4397339.5
4382793.5
4368247.1
4353700.5
4339153.6
4324606.5
4310059.1
4295511.4
4280963.5
4266415.4
4251866.9
4237318.2
4222769.3
4208220.1
4193670.6
4179120.9
4164570.9
4150020.7
4135470.1
4120919.4
4106368.4
4091817.1
4077265.5
4062713.7
4048161.7
4033609.4
4019056.8
4004503.9
3989950.8
3975397.5
3960843.8
3946290
3931735.8
3917181.4
3902626.8
3888071.9
3873516.7
3858961.2
3844405.5
3829849.6
3815293.4
3800736.9
3786180.2
3771623.2
3757065.9
3742508.4
3727950.6
3713392.6
3698834.3
3684275.7
3669716.9
3655157.8
3640598.5
3626038.9
3611479
3596918.9
3582358.5
3567797.9
3553237
3538675.8
3524114.4
3509552.7
3494990.8
3480428.6
3465866.1
3451303.4
3436740.4
3422177.2
3407613.7
3393049.9
3378485.9
3363921.6
3349357.1
3334792.3
3320227.2
3305661.9
3291096.3
3276530.5
3261964.4
3247398
3232831.4
3218264.5
3203697.3
3189129.9
3174562.3
3159994.3
3145426.1
3130857.7
3116289
3101720
3087150.8
3072581.3
3058011.5
3043441.5
3028871.2
3014300.7
2999729.9
2985158.8
2970587.5
2956015.9
2941444.1
2926872
2912299.6
2897727
2883154.1
2868581
2854007.6
2839433.9
2824860
2810285.8
2795711.3
2781136.6
2766561.6
2751986.4
2737410.9
2722835.1
2708259.1
2693682.8
2679106.3
2664529.5
2649952.4
2635375.1
2620797.5
2606219.7
2591641.6
2577063.2
2562484.5
2547905.7
2533326.5
2518747.1
2504167.4
2489587.5
2475007.3
2460426.8
2445846.1
2431265.1
2416683.8
2402102.3
2387520.5
2372938.5
2358356.2
2343773.7
2329190.8
2314607.8
2300024.4
2285440.8
2270856.9
2256272.8
2241688.4
2227103.8
2212518.9
2197933.7
2183348.3
2168762.6
2154176.6
2139590.4
2125003.9
2110417.1
2095830.1
2081242.9
2066655.3
2052067.5
2037479.5
2022891.2
2008302.6
1993713.7
1979124.6
1964535.3
1949945.6
1935355.7
1920765.6
1906175.2
1891584.5
1876993.5
1862402.3
1847810.9
1833219.1
1818627.2
1804034.9
1789442.4
1774849.6
1760256.6
1745663.3
1731069.7
1716475.9
1701881.8
1687287.4
1672692.8
1658097.9
1643502.8
1628907.4
1614311.7
1599715.8
1585119.6
1570523.2
1555926.4
1541329.5
1526732.2
1512134.7
1497536.9
1482938.9
1468340.6
1453742.1
1439143.2
1424544.2
1409944.8
1395345.2
1380745.3
1366145.2
1351544.8
1336944.2
1322343.2
1307742
1293140.6
1278538.9
1263936.9
1249334.7
1234732.2
1220129.4
1205526.4
1190923.1
1176319.5
1161715.7
1147111.6
1132507.3
1117902.7
1103297.8
1088692.7
1074087.3
1059481.6
1044875.7
1030269.5
1015663.1
1001056.4
986449.38
971842.14
957234.64
942626.87
928018.84
913410.55
898801.99
884193.17
869584.08
854974.73
840365.12
825755.25
811145.11
796534.7
781924.03
767313.1
752701.91
738090.45
723478.72
708866.74
694254.48
679641.97
665029.19
650416.14
635802.83
621189.26
606575.42
591961.31
577346.94
562732.31
548117.41
533502.25
518886.82
504271.12
489655.16
475038.94
460422.45
445805.69
431188.67
416571.38
401953.83
387336.01
372717.93
358099.58
343480.97
328862.1
314242.96
299623.57
285003.92
270384.01
255763.85
241143.45
226522.8
211901.91
197280.8
182659.46
168037.92
153416.18
138794.25
124172.17
109549.94
94927.592
80305.131
65682.784
51061.012
36436.654
21798.6
7198.4444
21736814
21706169
21678083
21652995
21629370
21606977
21585783
21565675
21546525
21528208
21510608
21493623
21477156
21461126
21445460
21430096
21414981
21400070
21385324
21370713
21356209
21341790
21327439
21313139
21298880
21284651
21270444
21256253
21242072
21227898
21213727
21199556
21185385
21171212
21157035
21142855
21128669
21114479
21100285
21086085
21071880
21057671
21043458
21029240
21015019
21000794
20986565
20972333
20958098
20943860
20929620
20915378
20901133
20886886
20872638
20858388
20844137
20829884
20815630
20801375
20787119
20772861
20758603
20744345
20730085
20715825
20701564
20687303
20673041
20658778
20644515
20630252
20615988
20601724
20587459
20573194
20558929
20544663
20530397
20516131
20501864
20487598
20473330
20459063
20444795
20430527
20416259
20401990
20387722
20373453
20359183
20344914
20330644
20316374
20302104
20287833
20273562
20259291
20245020
20230748
20216476
20202204
20187932
20173660
20159387
20145114
20130841
20116567
20102293
20088020
20073745
20059471
20045196
20030921
20016646
20002371
19988095
19973819
19959543
19945267
19930990
19916713
19902436
19888159
19873881
19859603
19845325
19831047
19816768
19802490