/*--------------------------------*- C++ -*----------------------------------*\
  =========                 |
  \\      /  F ield         | OpenFOAM: The Open Source CFD Toolbox
   \\    /   O peration     | Website:  https://openfoam.org
    \\  /    A nd           | Version:  6
     \\/     M anipulation  |
\*---------------------------------------------------------------------------*/
FoamFile
{
    version     2.0;
    format      ascii;
    class       volVectorField;
    location    "10000";
    object      U;
}
// * * * * * * * * * * * * * * * * * * * * * * * * * * * * * * * * * * * * * //

dimensions      [0 1 -1 0 0 0 0];

internalField   nonuniform List<vector> 
10000
(
(1.4920899 -8.2296636e-21 0.002923919)
(1.4852102 9.6806057e-21 0.0071201912)
(1.4674326 0 0.01015475)
(1.4446508 -9.6500294e-21 0.011980599)
(1.4195247 0 0.012807753)
(1.3936523 0 0.01289373)
(1.3682384 0 0.012462225)
(1.3441086 -9.6003706e-21 0.011697455)
(1.3217577 0 0.010743172)
(1.3014346 0 0.009704723)
(1.2832163 0 0.0086549899)
(1.2670651 -9.5578473e-21 0.0076414859)
(1.2528714 -9.5477354e-21 0.0066929047)
(1.2404852 0 0.0058245502)
(1.2297374 0 0.0050425699)
(1.2204541 0 0.0043471075)
(1.2124659 0 0.003734571)
(1.2056135 -9.4984231e-21 0.0031992153)
(1.1997503 -9.4886838e-21 0.0027342179)
(1.1947439 0 0.0023323866)
(1.1904763 0 0.0019866105)
(1.1868433 0 0.0016901312)
(1.1837536 -9.4498509e-21 0.0014366943)
(1.1811276 0 0.0012206199)
(1.1788967 0 0.0010368218)
(1.1770014 0 0.0008807936)
(1.1753908 0 0.00074857643)
(1.1740213 0 0.00063671561)
(1.1728556 0 0.00054221314)
(1.1718621 -9.3819921e-21 0.00046247931)
(1.1710137 0 0.00039528575)
(1.1702876 0 0.00033872142)
(1.1696644 0 0.00029115214)
(1.1691276 0 0.00025118399)
(1.1686635 -9.3334974e-21 0.00021763067)
(1.1682603 0 0.00018948455)
(1.1679082 0 0.0001658913)
(1.167599 0 0.0001461277)
(1.1673257 0 0.00012958244)
(1.1670824 -9.2849832e-21 0.00011573947)
(1.1668642 0 0.00010416369)
(1.1666671 0 9.4488653e-05)
(1.1664874 0 8.6406039e-05)
(1.1663225 0 7.9656696e-05)
(1.1661697 0 7.4022977e-05)
(1.1660272 0 6.9322245e-05)
(1.1658932 0 6.5401354e-05)
(1.1657663 0 6.2131976e-05)
(1.1656453 0 5.9406653e-05)
(1.1655293 0 5.7135452e-05)
(1.1654173 0 5.5243154e-05)
(1.1653088 -9.168519e-21 5.3666876e-05)
(1.1652032 0 5.235408e-05)
(1.1650999 0 5.1260884e-05)
(1.1649986 0 5.0350658e-05)
(1.164899 0 4.9592835e-05)
(1.1648007 -9.1199898e-21 4.8961919e-05)
(1.1647035 0 4.843665e-05)
(1.1646073 0 4.7999308e-05)
(1.1645119 0 4.7635126e-05)
(1.1644172 0 4.7331804e-05)
(1.164323 -9.0714614e-21 4.7079098e-05)
(1.1642292 0 4.6868482e-05)
(1.1641358 0 4.6692856e-05)
(1.1640428 0 4.6546314e-05)
(1.16395 0 4.6423943e-05)
(1.1638574 0 4.6321655e-05)
(1.163765 0 4.6236053e-05)
(1.1636727 -9.0035238e-21 4.616431e-05)
(1.1635806 0 4.6104078e-05)
(1.1634886 0 4.6053405e-05)
(1.1633966 0 4.601067e-05)
(1.1633048 0 4.5974524e-05)
(1.163213 -8.9549988e-21 4.5943849e-05)
(1.1631212 0 4.5917714e-05)
(1.1630295 0 4.5895349e-05)
(1.1629379 0 4.5876111e-05)
(1.1628462 0 4.5859469e-05)
(1.1627546 -8.9064752e-21 4.5844981e-05)
(1.1626631 0 4.583228e-05)
(1.1625715 0 4.5821063e-05)
(1.1624799 0 4.5811075e-05)
(1.1623884 0 4.5802108e-05)
(1.1622969 -8.8579533e-21 4.5793988e-05)
(1.1622054 0 4.578657e-05)
(1.1621139 0 4.5779735e-05)
(1.1620224 0 4.5773383e-05)
(1.1619309 0 4.5767431e-05)
(1.1618394 0 4.5761811e-05)
(1.1617479 0 4.5756466e-05)
(1.1616565 -8.7900252e-21 4.5751349e-05)
(1.161565 0 4.5746421e-05)
(1.1614736 0 4.5741649e-05)
(1.1613821 0 4.5737006e-05)
(1.1612907 0 4.573247e-05)
(1.1611992 -8.7415071e-21 4.5728022e-05)
(1.1611078 0 4.5723647e-05)
(1.1610163 0 4.5719332e-05)
(1.1609249 0 4.5715066e-05)
(1.1608335 0 4.5710842e-05)
(1.1607421 -8.6929906e-21 4.5706651e-05)
(1.1606506 0 4.5702487e-05)
(1.1605592 0 4.5698346e-05)
(1.1604678 0 4.5694224e-05)
(1.1603764 0 4.5690118e-05)
(1.160285 0 4.5686024e-05)
(1.1601936 0 4.5681941e-05)
(1.1601022 0 4.5677867e-05)
(1.1600108 0 4.5673801e-05)
(1.1599194 0 4.5669741e-05)
(1.159828 0 4.5665686e-05)
(1.1597367 0 4.5661636e-05)
(1.1596453 -8.5765577e-21 4.5657591e-05)
(1.1595539 0 4.5653549e-05)
(1.1594625 0 4.564951e-05)
(1.1593712 0 4.5645475e-05)
(1.1592798 0 4.5641442e-05)
(1.1591884 -8.5280467e-21 4.5637412e-05)
(1.1590971 0 4.5633384e-05)
(1.1590057 0 4.5629357e-05)
(1.1589144 0 4.5625333e-05)
(1.158823 0 4.562131e-05)
(1.1587317 -8.4795375e-21 4.5617289e-05)
(1.1586403 0 4.5613268e-05)
(1.158549 0 4.5609249e-05)
(1.1584577 0 4.560523e-05)
(1.1583663 0 4.5601212e-05)
(1.158275 0 4.5597194e-05)
(1.1581837 0 4.5593176e-05)
(1.1580924 -8.4116273e-21 4.5589159e-05)
(1.158001 0 4.5585141e-05)
(1.1579097 0 4.5581123e-05)
(1.1578184 0 4.5577105e-05)
(1.1577271 0 4.5573086e-05)
(1.1576358 -8.3631221e-21 4.5569067e-05)
(1.1575445 0 4.5565047e-05)
(1.1574532 0 4.5561027e-05)
(1.1573619 0 4.5557007e-05)
(1.1572706 0 4.5552986e-05)
(1.1571793 -8.3146185e-21 4.5548965e-05)
(1.1570881 0 4.5544944e-05)
(1.1569968 0 4.5540923e-05)
(1.1569055 0 4.5536901e-05)
(1.1568142 0 4.553288e-05)
(1.156723 0 4.5528858e-05)
(1.1566317 0 4.5524837e-05)
(1.1565404 0 4.5520817e-05)
(1.1564492 0 4.5516796e-05)
(1.1563579 0 4.5512776e-05)
(1.1562667 0 4.5508757e-05)
(1.1561754 0 4.5504738e-05)
(1.1560842 -8.1982169e-21 4.550072e-05)
(1.1559929 0 4.5496702e-05)
(1.1559017 0 4.5492685e-05)
(1.1558105 0 4.5488668e-05)
(1.1557192 0 4.5484652e-05)
(1.155628 -8.1497191e-21 4.5480636e-05)
(1.1555368 0 4.5476621e-05)
(1.1554456 0 4.5472606e-05)
(1.1553544 0 4.5468591e-05)
(1.1552631 0 4.5464576e-05)
(1.1551719 0 4.5460562e-05)
(1.1550807 0 4.5456547e-05)
(1.1549895 0 4.5452533e-05)
(1.1548983 0 4.5448518e-05)
(1.1548071 0 4.5444503e-05)
(1.1547159 0 4.5440489e-05)
(1.1546247 0 4.5436474e-05)
(1.1545336 0 4.5432459e-05)
(1.1544424 0 4.5428445e-05)
(1.1543512 0 4.542443e-05)
(1.15426 0 4.5420415e-05)
(1.1541689 0 4.5416401e-05)
(1.1540777 0 4.5412386e-05)
(1.1539865 0 4.5408372e-05)
(1.1538954 0 4.5404358e-05)
(1.1538042 7.9557454e-21 4.5400344e-05)
(1.153713 0 4.5396331e-05)
(1.1536219 0 4.5392318e-05)
(1.1535308 0 4.5388305e-05)
(1.1534396 0 4.5384293e-05)
(1.1533485 7.9072564e-21 4.5380281e-05)
(1.1532573 0 4.537627e-05)
(1.1531662 0 4.5372259e-05)
(1.1530751 0 4.5368248e-05)
(1.1529839 0 4.5364237e-05)
(1.1528928 7.8587691e-21 4.5360227e-05)
(1.1528017 0 4.5356217e-05)
(1.1527106 0 4.5352208e-05)
(1.1526195 0 4.5348198e-05)
(1.1525284 -7.8199805e-21 4.5344189e-05)
(1.1524373 0 4.5340179e-05)
(1.1523461 0 4.533617e-05)
(1.152255 0 4.533216e-05)
(1.152164 0 4.532815e-05)
(1.1520729 -7.7714965e-21 4.532414e-05)
(1.1519818 0 4.532013e-05)
(1.1518907 0 4.531612e-05)
(1.1517996 7.7424069e-21 4.531211e-05)
(1.1517085 0 4.53081e-05)
(1.1516175 -7.7230142e-21 4.5304089e-05)
(1.1515264 7.7133179e-21 4.5300079e-05)
(1.1514353 0 4.5296068e-05)
(1.1513442 7.6939257e-21 4.5292058e-05)
(1.1512532 0 4.5288047e-05)
(1.1511621 0 4.5284037e-05)
(1.1510711 7.6648378e-21 4.5280027e-05)
(1.15098 0 4.5276017e-05)
(1.150889 7.6454463e-21 4.5272008e-05)
(1.1507979 0 4.5267999e-05)
(1.1507069 0 4.526399e-05)
(1.1506159 7.6163595e-21 4.5259982e-05)
(1.1505248 -7.6066641e-21 4.5255974e-05)
(1.1504338 0 4.5251967e-05)
(1.1503428 7.5872734e-21 4.5247961e-05)
(1.1502517 0 4.5243955e-05)
(1.1501607 0 4.5239949e-05)
(1.1500697 -7.5581879e-21 4.5235944e-05)
(1.1499787 0 4.5231939e-05)
(1.1498877 7.538798e-21 4.5227935e-05)
(1.1497967 0 4.5223932e-05)
(1.1497057 0 4.5219928e-05)
(1.1496147 -7.5097137e-21 4.5215925e-05)
(1.1495237 7.500019e-21 4.5211922e-05)
(1.1494327 -7.4903244e-21 4.5207919e-05)
(1.1493417 0 4.5203916e-05)
(1.1492507 7.4709355e-21 4.5199914e-05)
(1.1491597 0 4.5195911e-05)
(1.1490688 7.4515469e-21 4.5191908e-05)
(1.1489778 0 4.5187905e-05)
(1.1488868 0 4.5183902e-05)
(1.1487959 7.4224646e-21 4.5179899e-05)
(1.1487049 0 4.5175896e-05)
(1.1486139 7.4030767e-21 4.5171892e-05)
(1.148523 0 4.5167888e-05)
(1.148432 0 4.5163884e-05)
(1.1483411 7.3739954e-21 4.515988e-05)
(1.1482501 0 4.5155876e-05)
(1.1481592 0 4.5151872e-05)
(1.1480682 0 4.5147868e-05)
(1.1479773 0 4.5143864e-05)
(1.1478864 0 4.513986e-05)
(1.1477954 0 4.5135856e-05)
(1.1477045 0 4.5131852e-05)
(1.1476136 0 4.5127848e-05)
(1.1475227 0 4.5123845e-05)
(1.1474318 0 4.5119842e-05)
(1.1473408 0 4.511584e-05)
(1.1472499 7.2576772e-21 4.5111838e-05)
(1.147159 -7.2479845e-21 4.5107836e-05)
(1.1470681 0 4.5103835e-05)
(1.1469772 0 4.5099835e-05)
(1.1468863 0 4.5095834e-05)
(1.1467954 7.2092144e-21 4.5091835e-05)
(1.1467046 7.1995221e-21 4.5087836e-05)
(1.1466137 0 4.5083837e-05)
(1.1465228 0 4.5079838e-05)
(1.1464319 0 4.507584e-05)
(1.146341 7.1607536e-21 4.5071843e-05)
(1.1462502 7.1510616e-21 4.5067845e-05)
(1.1461593 0 4.5063848e-05)
(1.1460684 0 4.5059851e-05)
(1.1459776 0 4.5055854e-05)
(1.1458867 0 4.5051858e-05)
(1.1457959 7.102603e-21 4.5047861e-05)
(1.145705 0 4.5043865e-05)
(1.1456142 0 4.5039868e-05)
(1.1455233 0 4.5035871e-05)
(1.1454325 0 4.5031875e-05)
(1.1453416 7.0541464e-21 4.5027878e-05)
(1.1452508 0 4.5023881e-05)
(1.14516 0 4.5019884e-05)
(1.1450692 0 4.5015887e-05)
(1.1449783 0 4.501189e-05)
(1.1448875 -7.0056916e-21 4.5007893e-05)
(1.1447967 0 4.5003896e-05)
(1.1447059 6.9863103e-21 4.4999899e-05)
(1.1446151 0 4.4995902e-05)
(1.1445243 0 4.4991905e-05)
(1.1444335 6.9572388e-21 4.4987908e-05)
(1.1443427 0 4.4983911e-05)
(1.1442519 6.9378583e-21 4.4979915e-05)
(1.1441611 0 4.4975918e-05)
(1.1440703 0 4.4971922e-05)
(1.1439795 6.908788e-21 4.4967926e-05)
(1.1438887 0 4.4963931e-05)
(1.143798 6.8894082e-21 4.4959935e-05)
(1.1437072 0 4.495594e-05)
(1.1436164 0 4.4951946e-05)
(1.1435257 6.860339e-21 4.4947951e-05)
(1.1434349 -6.8506495e-21 4.4943958e-05)
(1.1433441 0 4.4939964e-05)
(1.1432534 0 4.4935971e-05)
(1.1431626 0 4.4931978e-05)
(1.1430719 6.8118921e-21 4.4927986e-05)
(1.1429811 -6.8022029e-21 4.4923993e-05)
(1.1428904 0 4.4920001e-05)
(1.1427996 0 4.491601e-05)
(1.1427089 6.7731359e-21 4.4912018e-05)
(1.1426182 -6.7634471e-21 4.4908027e-05)
(1.1425274 -6.7537583e-21 4.4904036e-05)
(1.1424367 6.7440696e-21 4.4900046e-05)
(1.142346 0 4.4896055e-05)
(1.1422553 6.7246925e-21 4.4892064e-05)
(1.1421646 6.715004e-21 4.4888074e-05)
(1.1420739 0 4.4884083e-05)
(1.1419831 6.6956274e-21 4.4880093e-05)
(1.1418924 0 4.4876103e-05)
(1.1418017 6.6762511e-21 4.4872113e-05)
(1.141711 6.666563e-21 4.4868122e-05)
(1.1416203 0 4.4864132e-05)
(1.1415297 6.6471871e-21 4.4860142e-05)
(1.141439 -6.6374993e-21 4.4856152e-05)
(1.1413483 0 4.4852161e-05)
(1.1412576 6.6181239e-21 4.4848171e-05)
(1.1411669 0 4.4844181e-05)
(1.1410763 0 4.4840191e-05)
(1.1409856 -6.5890615e-21 4.4836201e-05)
(1.1408949 0 4.4832211e-05)
(1.1408043 6.5696869e-21 4.4828222e-05)
(1.1407136 6.5599997e-21 4.4824232e-05)
(1.1406229 -6.5503126e-21 4.4820243e-05)
(1.1405323 6.5406256e-21 4.4816254e-05)
(1.1404416 6.5309387e-21 4.4812265e-05)
(1.140351 -6.5212518e-21 4.4808277e-05)
(1.1402603 6.5115651e-21 4.4804288e-05)
(1.1401697 6.5018784e-21 4.48003e-05)
(1.1400791 -6.4921918e-21 4.4796313e-05)
(1.1399884 6.4825053e-21 4.4792325e-05)
(1.1398978 -6.4728188e-21 4.4788338e-05)
(1.1398072 6.4631325e-21 4.4784351e-05)
(1.1397166 6.4534462e-21 4.4780365e-05)
(1.1396259 -6.44376e-21 4.4776378e-05)
(1.1395353 6.4340739e-21 4.4772392e-05)
(1.1394447 0 4.4768407e-05)
(1.1393541 -6.4147019e-21 4.4764421e-05)
(1.1392635 6.405016e-21 4.4760436e-05)
(1.1391729 0 4.4756451e-05)
(1.1390823 -6.3856445e-21 4.4752466e-05)
(1.1389917 0 4.4748481e-05)
(1.1389011 6.3662733e-21 4.4744496e-05)
(1.1388105 -6.3565878e-21 4.4740512e-05)
(1.13872 0 4.4736527e-05)
(1.1386294 -6.3372172e-21 4.4732543e-05)
(1.1385388 0 4.4728559e-05)
(1.1384482 6.3178468e-21 4.4724575e-05)
(1.1383577 -6.3081617e-21 4.4720591e-05)
(1.1382671 0 4.4716607e-05)
(1.1381765 6.2887919e-21 4.4712623e-05)
(1.138086 -6.2791071e-21 4.4708639e-05)
(1.1379954 6.2694223e-21 4.4704655e-05)
(1.1379049 0 4.4700672e-05)
(1.1378143 -6.2500531e-21 4.4696688e-05)
(1.1377238 6.2403687e-21 4.4692705e-05)
(1.1376332 -6.2306843e-21 4.4688722e-05)
(1.1375427 6.221e-21 4.4684739e-05)
(1.1374521 0 4.4680756e-05)
(1.1373616 -6.2016316e-21 4.4676773e-05)
(1.1372711 6.1919475e-21 4.4672791e-05)
(1.1371806 6.1822635e-21 4.4668808e-05)
(1.13709 -6.1725796e-21 4.4664826e-05)
(1.1369995 0 4.4660844e-05)
(1.136909 0 4.4656862e-05)
(1.1368185 -6.1435284e-21 4.4652881e-05)
(1.136728 6.1338449e-21 4.46489e-05)
(1.1366375 6.1241614e-21 4.4644919e-05)
(1.136547 -6.114478e-21 4.4640938e-05)
(1.1364565 0 4.4636957e-05)
(1.136366 -6.0951115e-21 4.4632977e-05)
(1.1362755 6.0854283e-21 4.4628997e-05)
(1.136185 6.0757453e-21 4.4625017e-05)
(1.1360945 -6.0660623e-21 4.4621037e-05)
(1.1360041 0 4.4617058e-05)
(1.1359136 0 4.4613078e-05)
(1.1358231 -6.0370138e-21 4.4609099e-05)
(1.1357326 6.0273312e-21 4.460512e-05)
(1.1356422 6.0176486e-21 4.4601142e-05)
(1.1355517 -6.0079662e-21 4.4597163e-05)
(1.1354612 0 4.4593184e-05)
(1.1353708 -5.9886015e-21 4.4589206e-05)
(1.1352803 5.9789193e-21 4.4585228e-05)
(1.1351899 5.9692371e-21 4.458125e-05)
(1.1350994 -5.9595551e-21 4.4577272e-05)
(1.135009 0 4.4573294e-05)
(1.1349186 5.9401912e-21 4.4569317e-05)
(1.1348281 -5.9305094e-21 4.4565339e-05)
(1.1347377 5.9208277e-21 4.4561362e-05)
(1.1346473 0 4.4557385e-05)
(1.1345568 -5.9014646e-21 4.4553407e-05)
(1.1344664 5.8917831e-21 4.454943e-05)
(1.134376 0 4.4545454e-05)
(1.1342856 -5.8724205e-21 4.4541477e-05)
(1.1341952 0 4.45375e-05)
(1.1341048 -5.8530582e-21 4.4533524e-05)
(1.1340144 5.8433771e-21 4.4529548e-05)
(1.133924 0 4.4525572e-05)
(1.1338336 -5.8240153e-21 4.4521596e-05)
(1.1337432 0 4.451762e-05)
(1.1336528 5.8046539e-21 4.4513645e-05)
(1.1335624 -5.7949733e-21 4.450967e-05)
(1.133472 0 4.4505695e-05)
(1.1333816 5.7756123e-21 4.450172e-05)
(1.1332913 -5.765932e-21 4.4497745e-05)
(1.1332009 5.7562518e-21 4.4493771e-05)
(1.1331105 -5.7465716e-21 4.4489796e-05)
(1.1330202 0 4.4485822e-05)
(1.1329298 5.7272115e-21 4.4481848e-05)
(1.1328394 -5.7175316e-21 4.4477875e-05)
(1.1327491 5.7078518e-21 4.4473901e-05)
(1.1326587 5.698172e-21 4.4469928e-05)
(1.1325684 -5.6884924e-21 4.4465955e-05)
(1.132478 5.6788128e-21 4.4461982e-05)
(1.1323877 5.6691334e-21 4.4458009e-05)
(1.1322974 -5.659454e-21 4.4454036e-05)
(1.132207 5.6497747e-21 4.4450064e-05)
(1.1321167 5.6400955e-21 4.4446092e-05)
(1.1320264 -5.6304163e-21 4.444212e-05)
(1.131936 5.6207373e-21 4.4438148e-05)
(1.1318457 -5.6110584e-21 4.4434176e-05)
(1.1317554 5.6013795e-21 4.4430204e-05)
(1.1316651 5.5917007e-21 4.4426233e-05)
(1.1315748 -5.582022e-21 4.4422262e-05)
(1.1314845 5.5723434e-21 4.441829e-05)
(1.1313942 5.5626649e-21 4.4414319e-05)
(1.1313039 -5.5529865e-21 4.4410349e-05)
(1.1312136 5.5433081e-21 4.4406378e-05)
(1.1311233 5.5336299e-21 4.4402407e-05)
(1.131033 -5.5239517e-21 4.4398437e-05)
(1.1309427 5.5142737e-21 4.4394467e-05)
(1.1308524 -5.5045957e-21 4.4390497e-05)
(1.1307621 5.4949178e-21 4.4386527e-05)
(1.1306719 5.48524e-21 4.4382557e-05)
(1.1305816 -5.4755623e-21 4.4378588e-05)
(1.1304913 5.4658846e-21 4.4374618e-05)
(1.1304011 0 4.4370649e-05)
(1.1303108 -5.4465296e-21 4.436668e-05)
(1.1302205 5.4368523e-21 4.4362711e-05)
(1.1301303 0 4.4358742e-05)
(1.13004 -5.4174978e-21 4.4354774e-05)
(1.1299498 0 4.4350806e-05)
(1.1298595 -5.3981437e-21 4.4346837e-05)
(1.1297693 5.3884668e-21 4.4342869e-05)
(1.1296791 0 4.4338902e-05)
(1.1295888 -5.3691132e-21 4.4334934e-05)
(1.1294986 0 4.4330967e-05)
(1.1294084 5.34976e-21 4.4327e-05)
(1.1293182 -5.3400835e-21 4.4323032e-05)
(1.1292279 0 4.4319066e-05)
(1.1291377 5.3207308e-21 4.4315099e-05)
(1.1290475 -5.3110546e-21 4.4311132e-05)
(1.1289573 5.3013785e-21 4.4307166e-05)
(1.1288671 0 4.43032e-05)
(1.1287769 -5.2820265e-21 4.4299234e-05)
(1.1286867 5.2723506e-21 4.4295268e-05)
(1.1285965 -5.2626749e-21 4.4291302e-05)
(1.1285063 5.2529992e-21 4.4287337e-05)
(1.1284161 0 4.4283372e-05)
(1.1283259 -5.2336481e-21 4.4279406e-05)
(1.1282357 5.2239727e-21 4.4275441e-05)
(1.1281456 5.2142974e-21 4.4271477e-05)
(1.1280554 -5.2046222e-21 4.4267512e-05)
(1.1279652 0 4.4263547e-05)
(1.127875 0 4.4259583e-05)
(1.1277849 -5.1755971e-21 4.4255619e-05)
(1.1276947 5.1659223e-21 4.4251655e-05)
(1.1276046 -5.1562475e-21 4.4247691e-05)
(1.1275144 0 4.4243727e-05)
(1.1274243 0 4.4239764e-05)
(1.1273341 -5.1272237e-21 4.4235801e-05)
(1.127244 5.1175493e-21 4.4231837e-05)
(1.1271538 5.107875e-21 4.4227874e-05)
(1.1270637 -5.0982008e-21 4.4223912e-05)
(1.1269736 0 4.4219949e-05)
(1.1268834 0 4.4215986e-05)
(1.1267933 -5.0691787e-21 4.4212024e-05)
(1.1267032 5.0595048e-21 4.4208062e-05)
(1.1266131 5.0498311e-21 4.42041e-05)
(1.1265229 -5.0401574e-21 4.4200138e-05)
(1.1264328 0 4.4196177e-05)
(1.1263427 -5.0208103e-21 4.4192215e-05)
(1.1262526 5.0111369e-21 4.4188254e-05)
(1.1261625 5.0014636e-21 4.4184293e-05)
(1.1260724 -4.9917904e-21 4.4180332e-05)
(1.1259823 0 4.4176371e-05)
(1.1258922 4.9724443e-21 4.417241e-05)
(1.1258021 -4.9627713e-21 4.416845e-05)
(1.125712 4.9530985e-21 4.416449e-05)
(1.125622 0 4.416053e-05)
(1.1255319 -4.9337531e-21 4.415657e-05)
(1.1254418 4.9240805e-21 4.415261e-05)
(1.1253517 -4.914408e-21 4.4148651e-05)
(1.1252617 4.9047356e-21 4.4144691e-05)
(1.1251716 0 4.4140732e-05)
(1.1250815 -4.8853912e-21 4.4136773e-05)
(1.1249915 4.8757191e-21 4.4132814e-05)
(1.1249014 0 4.4128856e-05)
(1.1248114 -4.8563751e-21 4.4124897e-05)
(1.1247213 0 4.4120939e-05)
(1.1246313 4.8370316e-21 4.4116981e-05)
(1.1245412 -4.8273599e-21 4.4113023e-05)
(1.1244512 0 4.4109065e-05)
(1.1243612 4.8080169e-21 4.4105107e-05)
(1.1242711 -4.7983456e-21 4.410115e-05)
(1.1241811 4.7886743e-21 4.4097192e-05)
(1.1240911 -4.7790031e-21 4.4093235e-05)
(1.1240011 0 4.4089278e-05)
(1.1239111 4.7596611e-21 4.4085321e-05)
(1.1238211 -4.7499902e-21 4.4081365e-05)
(1.123731 4.7403194e-21 4.4077408e-05)
(1.123641 4.7306487e-21 4.4073452e-05)
(1.123551 -4.7209781e-21 4.4069496e-05)
(1.123461 4.7113075e-21 4.406554e-05)
(1.123371 4.7016371e-21 4.4061584e-05)
(1.123281 -4.6919668e-21 4.4057628e-05)
(1.1231911 4.6822966e-21 4.4053673e-05)
(1.1231011 -4.6726264e-21 4.4049718e-05)
(1.1230111 4.6629564e-21 4.4045763e-05)
(1.1229211 4.6532864e-21 4.4041808e-05)
(1.1228311 -4.6436166e-21 4.4037853e-05)
(1.1227412 4.6339468e-21 4.4033898e-05)
(1.1226512 4.6242771e-21 4.4029944e-05)
(1.1225612 -4.6146076e-21 4.402599e-05)
(1.1224713 4.6049381e-21 4.4022036e-05)
(1.1223813 4.5952687e-21 4.4018082e-05)
(1.1222914 -4.5855994e-21 4.4014128e-05)
(1.1222014 4.5759302e-21 4.4010174e-05)
(1.1221115 4.5662611e-21 4.4006221e-05)
(1.1220215 -4.5565921e-21 4.4002268e-05)
(1.1219316 4.5469232e-21 4.3998315e-05)
(1.1218416 -4.5372544e-21 4.3994362e-05)
(1.1217517 4.5275857e-21 4.3990409e-05)
(1.1216618 4.5179171e-21 4.3986457e-05)
(1.1215719 -4.5082485e-21 4.3982504e-05)
(1.1214819 4.4985801e-21 4.3978552e-05)
(1.121392 0 4.39746e-05)
(1.1213021 -4.4792435e-21 4.3970648e-05)
(1.1212122 4.4695754e-21 4.3966697e-05)
(1.1211223 0 4.3962745e-05)
(1.1210324 -4.4502394e-21 4.3958794e-05)
(1.1209425 0 4.3954843e-05)
(1.1208526 -4.4309038e-21 4.3950892e-05)
(1.1207627 4.4212361e-21 4.3946941e-05)
(1.1206728 0 4.394299e-05)
(1.1205829 -4.4019011e-21 4.393904e-05)
(1.120493 0 4.393509e-05)
(1.1204031 4.3825664e-21 4.3931139e-05)
(1.1203133 -4.3728993e-21 4.3927189e-05)
(1.1202234 0 4.392324e-05)
(1.1201335 4.3535652e-21 4.391929e-05)
(1.1200436 -4.3438983e-21 4.3915341e-05)
(1.1199538 4.3342315e-21 4.3911391e-05)
(1.1198639 0 4.3907442e-05)
(1.1197741 -4.3148982e-21 4.3903493e-05)
(1.1196842 4.3052317e-21 4.3899544e-05)
(1.1195944 -4.2955653e-21 4.3895596e-05)
(1.1195045 4.285899e-21 4.3891647e-05)
(1.1194147 0 4.3887699e-05)
(1.1193248 -4.2665667e-21 4.3883751e-05)
(1.119235 4.2569007e-21 4.3879803e-05)
(1.1191452 4.2472347e-21 4.3875855e-05)
(1.1190553 -4.2375689e-21 4.3871907e-05)
(1.1189655 0 4.386796e-05)
(1.1188757 0 4.3864013e-05)
(1.1187859 -4.2085721e-21 4.3860066e-05)
(1.1186961 4.1989066e-21 4.3856119e-05)
(1.1186062 -4.1892413e-21 4.3852172e-05)
(1.1185164 0 4.3848226e-05)
(1.1184266 0 4.3844279e-05)
(1.1183368 -4.1602459e-21 4.3840333e-05)
(1.118247 4.1505809e-21 4.3836387e-05)
(1.1181572 4.1409161e-21 4.3832441e-05)
(1.1180674 -4.1312514e-21 4.3828496e-05)
(1.1179777 0 4.382455e-05)
(1.1178879 0 4.3820605e-05)
(1.1177981 -4.1022577e-21 4.381666e-05)
(1.1177083 4.0925934e-21 4.3812715e-05)
(1.1176185 -4.0829291e-21 4.380877e-05)
(1.1175288 0 4.3804826e-05)
(1.117439 0 4.3800881e-05)
(1.1173492 -4.053937e-21 4.3796937e-05)
(1.1172595 4.0442731e-21 4.3792993e-05)
(1.1171697 4.0346094e-21 4.3789049e-05)
(1.11708 -4.0249457e-21 4.3785105e-05)
(1.1169902 0 4.3781161e-05)
(1.1169005 4.0056187e-21 4.3777218e-05)
(1.1168107 -3.9959553e-21 4.3773274e-05)
(1.116721 3.9862921e-21 4.3769331e-05)
(1.1166313 0 4.3765388e-05)
(1.1165415 -3.9669659e-21 4.3761445e-05)
(1.1164518 3.9573029e-21 4.3757502e-05)
(1.1163621 -3.94764e-21 4.375356e-05)
(1.1162723 3.9379773e-21 4.3749617e-05)
(1.1161826 0 4.3745675e-05)
(1.1160929 -3.9186521e-21 4.3741733e-05)
(1.1160032 3.9089896e-21 4.3737791e-05)
(1.1159135 0 4.3733849e-05)
(1.1158238 -3.889665e-21 4.3729908e-05)
(1.1157341 0 4.3725966e-05)
(1.1156444 3.8703408e-21 4.3722025e-05)
(1.1155547 -3.8606788e-21 4.3718084e-05)
(1.115465 0 4.3714144e-05)
(1.1153753 -3.8413552e-21 4.3710203e-05)
(1.1152856 0 4.3706263e-05)
(1.115196 3.822032e-21 4.3702323e-05)
(1.1151063 -3.8123705e-21 4.3698383e-05)
(1.1150166 0 4.3694443e-05)
(1.1149269 3.7930479e-21 4.3690504e-05)
(1.1148373 -3.7833868e-21 4.3686565e-05)
(1.1147476 3.7737257e-21 4.3682625e-05)
(1.1146579 3.7640648e-21 4.3678686e-05)
(1.1145683 -3.7544039e-21 4.3674748e-05)
(1.1144786 3.7447432e-21 4.3670809e-05)
(1.114389 3.7350825e-21 4.366687e-05)
(1.1142993 -3.725422e-21 4.3662932e-05)
(1.1142097 3.7157615e-21 4.3658993e-05)
(1.1141201 -3.7061012e-21 4.3655055e-05)
(1.1140304 3.696441e-21 4.3651117e-05)
(1.1139408 3.6867808e-21 4.3647179e-05)
(1.1138512 -3.6771208e-21 4.3643241e-05)
(1.1137615 3.6674609e-21 4.3639303e-05)
(1.1136719 3.657801e-21 4.3635366e-05)
(1.1135823 -3.6481413e-21 4.3631428e-05)
(1.1134927 3.6384817e-21 4.3627491e-05)
(1.1134031 3.6288221e-21 4.3623554e-05)
(1.1133135 -3.6191627e-21 4.3619617e-05)
(1.1132239 3.6095034e-21 4.361568e-05)
(1.1131343 -3.5998442e-21 4.3611744e-05)
(1.1130447 3.5901851e-21 4.3607807e-05)
(1.1129551 3.580526e-21 4.3603871e-05)
(1.1128655 -3.5708671e-21 4.3599935e-05)
(1.1127759 3.5612083e-21 4.3596e-05)
(1.1126863 3.5515496e-21 4.3592064e-05)
(1.1125967 -3.541891e-21 4.3588129e-05)
(1.1125071 3.5322325e-21 4.3584194e-05)
(1.1124176 0 4.358026e-05)
(1.112328 -3.5129158e-21 4.3576325e-05)
(1.1122384 3.5032576e-21 4.3572391e-05)
(1.1121489 0 4.3568457e-05)
(1.1120593 -3.4839416e-21 4.3564523e-05)
(1.1119698 0 4.3560589e-05)
(1.1118802 -3.4646259e-21 4.3556655e-05)
(1.1117907 0 4.3552722e-05)
(1.1117011 0 4.3548789e-05)
(1.1116116 0 4.3544855e-05)
(1.111522 3.4259958e-21 4.3540922e-05)
(1.1114325 0 4.3536989e-05)
(1.111343 0 4.3533056e-05)
(1.1112534 0 4.3529123e-05)
(1.1111639 0 4.3525191e-05)
(1.1110744 -3.3777106e-21 4.3521258e-05)
(1.1109849 0 4.3517326e-05)
(1.1108954 0 4.3513393e-05)
(1.1108059 0 4.3509461e-05)
(1.1107163 0 4.3505529e-05)
(1.1106268 -3.3294279e-21 4.3501598e-05)
(1.1105373 0 4.3497666e-05)
(1.1104478 3.3101156e-21 4.3493734e-05)
(1.1103584 -3.3004596e-21 4.3489803e-05)
(1.1102689 0 4.3485872e-05)
(1.1101794 0 4.3481941e-05)
(1.1100899 -3.2714922e-21 4.3478011e-05)
(1.1100004 3.2618366e-21 4.3474081e-05)
(1.1099109 0 4.347015e-05)
(1.1098215 0 4.3466221e-05)
(1.109732 0 4.3462291e-05)
(1.1096425 -3.2232153e-21 4.3458361e-05)
(1.1095531 3.2135602e-21 4.3454432e-05)
(1.1094636 0 4.3450503e-05)
(1.1093742 0 4.3446574e-05)
(1.1092847 0 4.3442645e-05)
(1.1091953 0 4.3438717e-05)
(1.1091058 0 4.3434788e-05)
(1.1090164 0 4.343086e-05)
(1.1089269 3.1459778e-21 4.3426932e-05)
(1.1088375 -3.1363235e-21 4.3423004e-05)
(1.1087481 0 4.3419076e-05)
(1.1086586 0 4.3415148e-05)
(1.1085692 0 4.3411221e-05)
(1.1084798 3.0977077e-21 4.3407293e-05)
(1.1083904 -3.0880541e-21 4.3403366e-05)
(1.108301 0 4.3399439e-05)
(1.1082115 0 4.3395512e-05)
(1.1081221 -3.0590936e-21 4.3391585e-05)
(1.1080327 3.0494404e-21 4.3387658e-05)
(1.1079433 0 4.3383732e-05)
(1.1078539 -3.0301342e-21 4.3379806e-05)
(1.1077645 0 4.337588e-05)
(1.1076752 -3.0108284e-21 4.3371954e-05)
(1.1075858 3.0011757e-21 4.3368028e-05)
(1.1074964 0 4.3364102e-05)
(1.107407 -2.9818706e-21 4.3360177e-05)
(1.1073176 0 4.3356252e-05)
(1.1072283 0 4.3352327e-05)
(1.1071389 0 4.3348402e-05)
(1.1070495 0 4.3344478e-05)
(1.1069602 2.9336096e-21 4.3340553e-05)
(1.1068708 0 4.3336629e-05)
(1.1067815 0 4.3332705e-05)
(1.1066921 0 4.3328781e-05)
(1.1066028 -2.8950028e-21 4.3324858e-05)
(1.1065134 2.8853514e-21 4.3320934e-05)
(1.1064241 0 4.3317011e-05)
(1.1063347 0 4.3313087e-05)
(1.1062454 0 4.3309164e-05)
(1.1061561 -2.8467467e-21 4.3305242e-05)
(1.1060667 2.8370958e-21 4.3301319e-05)
(1.1059774 0 4.3297396e-05)
(1.1058881 -2.8177943e-21 4.3293474e-05)
(1.1057988 0 4.3289551e-05)
(1.1057095 0 4.3285629e-05)
(1.1056202 -2.7888429e-21 4.3281707e-05)
(1.1055308 0 4.3277786e-05)
(1.1054415 -2.7695426e-21 4.3273864e-05)
(1.1053522 0 4.3269943e-05)
(1.1052629 0 4.3266021e-05)
(1.1051737 -2.7405928e-21 4.32621e-05)
(1.1050844 0 4.3258179e-05)
(1.1049951 2.7212935e-21 4.3254259e-05)
(1.1049058 0 4.3250338e-05)
(1.1048165 0 4.3246418e-05)
(1.1047272 0 4.3242498e-05)
(1.104638 0 4.3238578e-05)
(1.1045487 2.6730472e-21 4.3234658e-05)
(1.1044594 0 4.3230738e-05)
(1.1043702 -2.6537495e-21 4.3226819e-05)
(1.1042809 0 4.3222899e-05)
(1.1041917 0 4.321898e-05)
(1.1041024 2.6248036e-21 4.3215061e-05)
(1.1040132 0 4.3211142e-05)
(1.1039239 -2.605507e-21 4.3207224e-05)
(1.1038347 0 4.3203305e-05)
(1.1037454 0 4.3199387e-05)
(1.1036562 -2.5765628e-21 4.3195469e-05)
(1.103567 0 4.3191551e-05)
(1.1034777 2.5572673e-21 4.3187633e-05)
(1.1033885 -2.5476197e-21 4.3183716e-05)
(1.1032993 0 4.3179798e-05)
(1.1032101 -2.5283248e-21 4.3175881e-05)
(1.1031209 0 4.3171964e-05)
(1.1030317 2.5090303e-21 4.3168047e-05)
(1.1029425 -2.4993833e-21 4.316413e-05)
(1.1028533 0 4.3160213e-05)
(1.1027641 0 4.3156297e-05)
(1.1026749 0 4.3152381e-05)
(1.1025857 2.4607961e-21 4.3148465e-05)
(1.1024965 0 4.3144549e-05)
(1.1024073 0 4.3140633e-05)
(1.1023181 0 4.3136717e-05)
(1.1022289 0 4.3132802e-05)
(1.1021398 -2.4125647e-21 4.3128887e-05)
(1.1020506 0 4.3124972e-05)
(1.1019614 0 4.3121057e-05)
(1.1018723 0 4.3117142e-05)
(1.1017831 0 4.3113228e-05)
(1.1016939 -2.3643361e-21 4.3109313e-05)
(1.1016048 0 4.3105399e-05)
(1.1015156 2.3450454e-21 4.3101485e-05)
(1.1014265 -2.3354003e-21 4.3097571e-05)
(1.1013373 0 4.3093658e-05)
(1.1012482 0 4.3089744e-05)
(1.1011591 -2.3064655e-21 4.3085831e-05)
(1.1010699 2.2968208e-21 4.3081918e-05)
(1.1009808 -2.2871762e-21 4.3078005e-05)
(1.1008917 0 4.3074092e-05)
(1.1008026 0 4.3070179e-05)
(1.1007134 -2.258243e-21 4.3066267e-05)
(1.1006243 2.2485989e-21 4.3062354e-05)
(1.1005352 0 4.3058442e-05)
(1.1004461 0 4.305453e-05)
(1.100357 0 4.3050618e-05)
(1.1002679 0 4.3046707e-05)
(1.1001788 0 4.3042795e-05)
(1.1000897 0 4.3038884e-05)
(1.1000006 2.181093e-21 4.3034973e-05)
(1.0999115 -2.1714497e-21 4.3031062e-05)
(1.0998224 0 4.3027151e-05)
(1.0997333 0 4.3023241e-05)
(1.0996443 0 4.301933e-05)
(1.0995552 2.1328779e-21 4.301542e-05)
(1.0994661 -2.1232352e-21 4.301151e-05)
(1.0993771 0 4.30076e-05)
(1.099288 0 4.300369e-05)
(1.0991989 -2.0943079e-21 4.2999781e-05)
(1.0991099 2.0846657e-21 4.2995872e-05)
(1.0990208 0 4.2991962e-05)
(1.0989318 -2.0653816e-21 4.2988053e-05)
(1.0988427 0 4.2984144e-05)
(1.0987537 -2.0460979e-21 4.2980236e-05)
(1.0986646 2.0364563e-21 4.2976327e-05)
(1.0985756 0 4.2972419e-05)
(1.0984866 -2.0171733e-21 4.296851e-05)
(1.0983975 0 4.2964602e-05)
(1.0983085 0 4.2960695e-05)
(1.0982195 0 4.2956787e-05)
(1.0981305 0 4.2952879e-05)
(1.0980415 1.9689679e-21 4.2948972e-05)
(1.0979524 0 4.2945065e-05)
(1.0978634 0 4.2941158e-05)
(1.0977744 0 4.2937251e-05)
(1.0976854 -1.9304057e-21 4.2933344e-05)
(1.0975964 1.9207654e-21 4.2929438e-05)
(1.0975074 0 4.2925531e-05)
(1.0974184 0 4.2921625e-05)
(1.0973295 0 4.2917719e-05)
(1.0972405 -1.8822055e-21 4.2913813e-05)
(1.0971515 1.8725658e-21 4.2909908e-05)
(1.0970625 0 4.2906002e-05)
(1.0969735 -1.8532868e-21 4.2902097e-05)
(1.0968846 0 4.2898192e-05)
(1.0967956 0 4.2894287e-05)
(1.0967066 -1.8243691e-21 4.2890382e-05)
(1.0966177 0 4.2886478e-05)
(1.0965287 -1.8050912e-21 4.2882573e-05)
(1.0964398 0 4.2878669e-05)
(1.0963508 0 4.2874765e-05)
(1.0962619 -1.7761753e-21 4.2870861e-05)
(1.0961729 0 4.2866957e-05)
(1.096084 1.7568986e-21 4.2863054e-05)
(1.095995 0 4.285915e-05)
(1.0959061 0 4.2855247e-05)
(1.0958172 0 4.2851344e-05)
(1.0957283 0 4.2847441e-05)
(1.0956393 1.7087088e-21 4.2843539e-05)
(1.0955504 0 4.2839636e-05)
(1.0954615 0 4.2835734e-05)
(1.0953726 0 4.2831831e-05)
(1.0952837 0 4.2827929e-05)
(1.0951948 1.660522e-21 4.2824028e-05)
(1.0951059 0 4.2820126e-05)
(1.095017 -1.6412481e-21 4.2816224e-05)
(1.0949281 0 4.2812323e-05)
(1.0948392 0 4.2808422e-05)
(1.0947503 -1.6123382e-21 4.2804521e-05)
(1.0946614 0 4.280062e-05)
(1.0945725 1.5930655e-21 4.2796719e-05)
(1.0944837 -1.5834293e-21 4.2792819e-05)
(1.0943948 0 4.2788918e-05)
(1.0943059 -1.5641573e-21 4.2785018e-05)
(1.0942171 0 4.2781118e-05)
(1.0941282 1.5448857e-21 4.2777218e-05)
(1.0940393 -1.5352501e-21 4.2773318e-05)
(1.0939505 0 4.2769419e-05)
(1.0938616 0 4.276552e-05)
(1.0937728 0 4.2761621e-05)
(1.0936839 1.4967089e-21 4.2757722e-05)
(1.0935951 0 4.2753823e-05)
(1.0935062 0 4.2749924e-05)
(1.0934174 0 4.2746026e-05)
(1.0933286 0 4.2742128e-05)
(1.0932397 1.4485351e-21 4.2738229e-05)
(1.0931509 0 4.2734332e-05)
(1.0930621 0 4.2730434e-05)
(1.0929733 0 4.2726536e-05)
(1.0928845 0 4.2722639e-05)
(1.0927957 0 4.2718742e-05)
(1.0927068 0 4.2714845e-05)
(1.092618 1.3810968e-21 4.2710948e-05)
(1.0925292 -1.3714632e-21 4.2707051e-05)
(1.0924404 0 4.2703155e-05)
(1.0923517 -1.3521965e-21 4.2699258e-05)
(1.0922629 -1.3425632e-21 4.2695362e-05)
(1.0921741 1.3329302e-21 4.2691466e-05)
(1.0920853 -1.3232972e-21 4.268757e-05)
(1.0919965 0 4.2683675e-05)
(1.0919077 -1.3040316e-21 4.2679779e-05)
(1.091819 -1.294399e-21 4.2675884e-05)