/*--------------------------------*- C++ -*----------------------------------*\
  =========                 |
  \\      /  F ield         | OpenFOAM: The Open Source CFD Toolbox
   \\    /   O peration     | Website:  https://openfoam.org
    \\  /    A nd           | Version:  6
     \\/     M anipulation  |
\*---------------------------------------------------------------------------*/
FoamFile
{
    version     2.0;
    format      ascii;
    class       volScalarField;
    location    "10000";
    object      p;
}
// * * * * * * * * * * * * * * * * * * * * * * * * * * * * * * * * * * * * * //

dimensions      [0 2 -2 0 0 0 0];

internalField   nonuniform List<scalar> 
10000
(
22801835
22757607
22719996
22686519
22655069
22625399
22597297
22570474
22544673
22519680
22495318
22471443
22447940
22424720
22401712
22378861
22356126
22333476
22310885
22288337
22265818
22243318
22220830
22198350
22175873
22153397
22130920
22108441
22085959
22063475
22040988
22018498
21996004
21973508
21951010
21928508
21906005
21883500
21860993
21838484
21815973
21793462
21770949
21748434
21725919
21703403
21680886
21658368
21635850
21613331
21590811
21568290
21545769
21523247
21500725
21478202
21455679
21433155
21410631
21388106
21365580
21343054
21320528
21298001
21275474
21252946
21230418
21207890
21185361
21162831
21140301
21117771
21095240
21072708
21050177
21027644
21005112
20982579
20960045
20937511
20914977
20892442
20869906
20847371
20824834
20802298
20779760
20757223
20734685
20712146
20689607
20667068
20644528
20621988
20599447
20576906
20554365
20531822
20509280
20486737
20464194
20441650
20419106
20396561
20374016
20351470
20328924
20306377
20283830
20261283
20238735
20216187
20193638
20171089
20148539
20125989
20103439
20080888
20058336
20035784
20013232
19990679
19968126
19945572
19923018
19900464
19877909
19855353
19832797
19810241
19787684
19765127
19742569
19720011
19697453
19674894
19652334
19629774
19607214
19584653
19562092
19539530
19516968
19494405
19471842
19449279
19426715
19404150
19381585
19359020
19336454
19313888
19291321
19268754
19246187
19223619
19201050
19178481
19155912
19133342
19110772
19088201
19065630
19043058
19020486
18997914
18975341
18952768
18930194
18907619
18885045
18862469
18839894
18817318
18794741
18772164
18749587
18727009
18704430
18681852
18659272
18636693
18614113
18591532
18568951
18546369
18523787
18501205
18478622
18456039
18433455
18410871
18388286
18365701
18343116
18320530
18297943
18275356
18252769
18230181
18207593
18185004
18162415
18139825
18117235
18094645
18072054
18049462
18026871
18004278
17981685
17959092
17936499
17913904
17891310
17868715
17846119
17823523
17800927
17778330
17755733
17733135
17710537
17687938
17665339
17642740
17620140
17597539
17574938
17552337
17529735
17507133
17484530
17461927
17439323
17416719
17394115
17371510
17348904
17326299
17303692
17281085
17258478
17235870
17213262
17190654
17168045
17145435
17122825
17100215
17077604
17054993
17032381
17009769
16987156
16964543
16941929
16919315
16896701
16874086
16851470
16828854
16806238
16783621
16761004
16738386
16715768
16693150
16670531
16647911
16625291
16602671
16580050
16557429
16534807
16512185
16489562
16466939
16444315
16421691
16399067
16376442
16353816
16331191
16308564
16285938
16263310
16240683
16218055
16195426
16172797
16150167
16127537
16104907
16082276
16059645
16037013
16014381
15991748
15969115
15946481
15923847
15901213
15878578
15855943
15833307
15810670
15788034
15765396
15742759
15720120
15697482
15674843
15652203
15629563
15606923
15584282
15561641
15538999
15516357
15493714
15471071
15448427
15425783
15403138
15380493
15357848
15335202
15312556
15289909
15267261
15244614
15221966
15199317
15176668
15154018
15131368
15108718
15086067
15063415
15040763
15018111
14995458
14972805
14950151
14927497
14904843
14882188
14859532
14836876
14814220
14791563
14768905
14746248
14723589
14700931
14678271
14655612
14632952
14610291
14587630
14564969
14542307
14519644
14496981
14474318
14451654
14428990
14406325
14383660
14360995
14338329
14315662
14292995
14270328
14247660
14224991
14202322
14179653
14156983
14134313
14111643
14088971
14066300
14043628
14020955
13998282
13975609
13952935
13930261
13907586
13884911
13862235
13839559
13816882
13794205
13771527
13748849
13726171
13703492
13680813
13658133
13635452
13612772
13590090
13567409
13544726
13522044
13499361
13476677
13453993
13431309
13408624
13385938
13363253
13340566
13317879
13295192
13272505
13249816
13227128
13204439
13181749
13159059
13136369
13113678
13090986
13068294
13045602
13022909
13000216
12977522
12954828
12932134
12909439
12886743
12864047
12841351
12818654
12795956
12773258
12750560
12727861
12705162
12682462
12659762
12637061
12614360
12591659
12568957
12546254
12523551
12500848
12478144
12455440
12432735
12410030
12387324
12364618
12341911
12319204
12296496
12273788
12251080
12228371
12205661
12182952
12160241
12137530
12114819
12092107
12069395
12046682
12023969
12001256
11978542
11955827
11933112
11910397
11887681
11864964
11842247
11819530
11796812
11774094
11751375
11728656
11705936
11683216
11660496
11637775
11615053
11592331
11569609
11546886
11524163
11501439
11478714
11455990
11433264
11410539
11387813
11365086
11342359
11319631
11296903
11274175
11251446
11228716
11205987
11183256
11160525
11137794
11115062
11092330
11069598
11046864
11024131
11001397
10978662
10955927
10933192
10910456
10887719
10864982
10842245
10819507
10796769
10774030
10751291
10728551
10705811
10683071
10660330
10637588
10614846
10592104
10569361
10546617
10523873
10501129
10478384
10455639
10432893
10410147
10387400
10364653
10341906
10319157
10296409
10273660
10250910
10228160
10205410
10182659
10159908
10137156
10114404
10091651
10068898
10046144
10023390
10000635
9977880.1
9955124.5
9932368.5
9909612
9886855
9864097.6
9841339.7
9818581.3
9795822.4
9773063.1
9750303.3
9727543.1
9704782.3
9682021.1
9659259.5
9636497.3
9613734.7
9590971.7
9568208.1
9545444.1
9522679.6
9499914.7
9477149.3
9454383.4
9431617
9408850.2
9386082.9
9363315.1
9340546.9
9317778.2
9295009
9272239.4
9249469.3
9226698.7
9203927.6
9181156.1
9158384.1
9135611.6
9112838.7
9090065.3
9067291.4
9044517.1
9021742.3
8998967
8976191.2
8953415
8930638.3
8907861.1
8885083.5
8862305.4
8839526.8
8816747.7
8793968.2
8771188.2
8748407.7
8725626.8
8702845.4
8680063.5
8657281.2
8634498.3
8611715
8588931.3
8566147
8543362.3
8520577.2
8497791.5
8475005.4
8452218.8
8429431.7
8406644.2
8383856.2
8361067.7
8338278.7
8315489.3
8292699.4
8269909.1
8247118.2
8224326.9
8201535.1
8178742.9
8155950.1
8133156.9
8110363.2
8087569.1
8064774.5
8041979.4
8019183.8
7996387.8
7973591.3
7950794.3
7927996.8
7905198.9
7882400.5
7859601.6
7836802.3
7814002.5
7791202.2
7768401.4
7745600.2
7722798.4
7699996.3
7677193.6
7654390.5
7631586.9
7608782.8
7585978.2
7563173.2
7540367.7
7517561.7
7494755.3
7471948.3
7449141
7426333.1
7403524.7
7380715.9
7357906.6
7335096.9
7312286.6
7289475.9
7266664.7
7243853
7221040.9
7198228.3
7175415.2
7152601.7
7129787.6
7106973.1
7084158.1
7061342.7
7038526.7
7015710.3
6992893.4
6970076.1
6947258.2
6924439.9
6901621.1
6878801.9
6855982.1
6833161.9
6810341.3
6787520.1
6764698.5
6741876.3
6719053.8
6696230.7
6673407.2
6650583.1
6627758.7
6604933.7
6582108.3
6559282.3
6536455.9
6513629.1
6490801.7
6467973.9
6445145.6
6422316.8
6399487.6
6376657.9
6353827.7
6330997
6308165.8
6285334.2
6262502.1
6239669.5
6216836.5
6194002.9
6171168.9
6148334.4
6125499.5
6102664
6079828.1
6056991.7
6034154.8
6011317.5
5988479.6
5965641.3
5942802.5
5919963.3
5897123.6
5874283.3
5851442.6
5828601.5
5805759.8
5782917.7
5760075.1
5737232
5714388.5
5691544.4
5668699.9
5645854.9
5623009.5
5600163.5
5577317.1
5554470.2
5531622.8
5508774.9
5485926.6
5463077.8
5440228.5
5417378.7
5394528.5
5371677.7
5348826.5
5325974.9
5303122.7
5280270
5257416.9
5234563.3
5211709.2
5188854.7
5165999.7
5143144.1
5120288.1
5097431.7
5074574.7
5051717.3
5028859.4
5006001
4983142.1
4960282.8
4937422.9
4914562.6
4891701.8
4868840.6
4845978.8
4823116.6
4800253.9
4777390.7
4754527
4731662.9
4708798.3
4685933.2
4663067.6
4640201.5
4617335
4594467.9
4571600.4
4548732.4
4525864
4502995
4480125.6
4457255.7
4434385.3
4411514.4
4388643.1
4365771.2
4342898.9
4320026.1
4297152.9
4274279.1
4251404.9
4228530.2
4205655
4182779.3
4159903.1
4137026.5
4114149.4
4091271.8
4068393.7
4045515.1
4022636.1
3999756.5
3976876.5
3953996
3931115.1
3908233.6
3885351.7
3862469.3
3839586.3
3816703
3793819.1
3770934.8
3748049.9
3725164.6
3702278.8
3679392.5
3656505.8
3633618.5
3610730.8
3587842.6
3564953.9
3542064.8
3519175.1
3496285
3473394.4
3450503.3
3427611.7
3404719.6
3381827.1
3358934
3336040.5
3313146.5
3290252
3267357.1
3244461.6
3221565.7
3198669.3
3175772.4
3152875
3129977.1
3107078.8
3084180
3061280.6
3038380.8
3015480.6
2992579.8
2969678.5
2946776.8
2923874.6
2900971.9
2878068.7
2855165
2832260.9
2809356.2
2786451.1
2763545.5
2740639.4
2717732.8
2694825.8
2671918.2
2649010.2
2626101.7
2603192.7
2580283.2
2557373.2
2534462.8
2511551.8
2488640.4
2465728.5
2442816.1
2419903.2
2396989.9
2374076
2351161.7
2328246.9
2305331.6
2282415.8
2259499.5
2236582.8
2213665.5
2190747.8
2167829.6
2144910.9
2121991.7
2099072
2076151.8
2053231.2
2030310.1
2007388.4
1984466.3
1961543.7
1938620.7
1915697.1
1892773.1
1869848.5
1846923.5
1823998
1801072
1778145.5
1755218.6
1732291.1
1709363.2
1686434.7
1663505.8
1640576.4
1617646.5
1594716.2
1571785.3
1548853.9
1525922.1
1502989.8
1480057
1457123.7
1434189.9
1411255.6
1388320.9
1365385.6
1342449.9
1319513.7
1296576.9
1273639.7
1250702.1
1227763.9
1204825.2
1181886.1
1158946.4
1136006.3
1113065.7
1090124.6
1067183
1044240.9
1021298.4
998355.32
975411.77
952467.74
929523.22
906578.21
883632.72
860686.73
837740.26
814793.29
791845.84
768897.9
745949.47
723000.55
700051.14
677101.24
654150.85
631199.97
608248.6
585296.74
562344.39
539391.55
516438.22
493484.4
470530.09
447575.3
424620.01
401664.24
378707.99
355751.25
332794.04
309836.35
286878.2
263919.6
240960.56
218001.09
195041.23
172081
149120.44
126159.58
103198.58
80238.192
57277.039
34300.905
11345.466
22798392
22755569
22717568
22684200
22653083
22623730
22595914
22569350
22543774
22518970
22494763
22471014
22447612
22424470
22401524
22378720
22356022
22333399
22310830
22288297
22265790
22243299
22220818
22198342
22175869
22153395
22130919
22108442
22085961
22063477
22040990
22018500
21996007
21973510
21951012
21928510
21906007
21883501
21860994
21838485
21815975
21793463
21770950
21748436
21725920
21703404
21680887
21658369
21635851
21613331
21590811
21568291
21545770
21523248
21500726
21478203
21455679
21433155
21410631
21388106
21365581
21343055
21320529
21298002
21275475
21252947
21230419
21207890
21185361
21162832
21140302
21117771
21095240
21072709
21050177
21027645
21005112
20982579
20960046
20937512
20914977
20892442
20869907
20847371
20824835
20802298
20779761
20757223
20734685
20712147
20689608
20667069
20644529
20621988
20599448
20576907
20554365
20531823
20509280
20486738
20464194
20441650
20419106
20396561
20374016
20351471
20328924
20306378
20283831
20261284
20238736
20216187
20193639
20171089
20148540
20125990
20103439
20080888
20058337
20035785
20013233
19990680
19968127
19945573
19923019
19900464
19877909
19855354
19832798
19810242
19787685
19765128
19742570
19720012
19697453
19674894
19652335
19629775
19607214
19584653
19562092
19539530
19516968
19494406
19471843
19449279
19426715
19404151
19381586
19359020
19336455
19313888
19291322
19268755
19246187
19223619
19201051
19178482
19155912
19133343
19110772
19088202
19065630
19043059
19020487
18997914
18975341
18952768
18930194
18907620
18885045
18862470
18839894
18817318
18794742
18772165
18749587
18727009
18704431
18681852
18659273
18636693
18614113
18591532
18568951
18546370
18523788
18501206
18478623
18456039
18433456
18410871
18388287
18365702
18343116
18320530
18297944
18275357
18252769
18230182
18207593
18185005
18162415
18139826
18117236
18094645
18072054
18049463
18026871
18004279
17981686
17959093
17936499
17913905
17891310
17868715
17846120
17823524
17800928
17778331
17755733
17733136
17710537
17687939
17665340
17642740
17620140
17597540
17574939
17552337
17529736
17507133
17484531
17461928
17439324
17416720
17394115
17371510
17348905
17326299
17303693
17281086
17258479
17235871
17213263
17190654
17168045
17145436
17122826
17100215
17077604
17054993
17032381
17009769
16987156
16964543
16941930
16919316
16896701
16874086
16851471
16828855
16806239
16783622
16761005
16738387
16715769
16693150
16670531
16647912
16625292
16602671
16580050
16557429
16534807
16512185
16489563
16466939
16444316
16421692
16399067
16376442
16353817
16331191
16308565
16285938
16263311
16240683
16218055
16195426
16172797
16150168
16127538
16104908
16082277
16059645
16037014
16014381
15991749
15969116
15946482
15923848
15901213
15878578
15855943
15833307
15810671
15788034
15765397
15742759
15720121
15697482
15674843
15652204
15629564
15606923
15584282
15561641
15538999
15516357
15493714
15471071
15448427
15425783
15403139
15380494
15357848
15335202
15312556
15289909
15267262
15244614
15221966
15199317
15176668
15154019
15131369
15108718
15086067
15063416
15040764
15018112
14995459
14972806
14950152
14927498
14904843
14882188
14859533
14836877
14814220
14791563
14768906
14746248
14723590
14700931
14678272
14655612
14632952
14610292
14587631
14564969
14542307
14519645
14496982
14474319
14451655
14428991
14406326
14383661
14360995
14338329
14315662
14292995
14270328
14247660
14224992
14202323
14179654
14156984
14134314
14111643
14088972
14066300
14043628
14020956
13998283
13975609
13952936
13930261
13907586
13884911
13862235
13839559
13816883
13794205
13771528
13748850
13726171
13703492
13680813
13658133
13635453
13612772
13590091
13567409
13544727
13522044
13499361
13476678
13453994
13431309
13408624
13385939
13363253
13340567
13317880
13295193
13272505
13249817
13227128
13204439
13181750
13159060
13136369
13113678
13090987
13068295
13045603
13022910
13000217
12977523
12954829
12932134
12909439
12886744
12864047
12841351
12818654
12795957
12773259
12750561
12727862
12705162
12682463
12659763
12637062
12614361
12591659
12568957
12546255
12523552
12500848
12478145
12455440
12432735
12410030
12387324
12364618
12341912
12319204
12296497
12273789
12251080
12228371
12205662
12182952
12160242
12137531
12114820
12092108
12069396
12046683
12023970
12001256
11978542
11955828
11933113
11910397
11887681
11864965
11842248
11819531
11796813
11774094
11751376
11728657
11705937
11683217
11660496
11637775
11615054
11592332
11569609
11546886
11524163
11501439
11478715
11455990
11433265
11410539
11387813
11365086
11342359
11319632
11296904
11274175
11251446
11228717
11205987
11183257
11160526
11137795
11115063
11092331
11069598
11046865
11024131
11001397
10978663
10955928
10933192
10910456
10887720
10864983
10842246
10819508
10796770
10774031
10751292
10728552
10705812
10683071
10660330
10637589
10614847
10592104
10569361
10546618
10523874
10501130
10478385
10455639
10432894
10410147
10387401
10364654
10341906
10319158
10296409
10273660
10250911
10228161
10205411
10182660
10159908
10137156
10114404
10091651
10068898
10046144
10023390
10000636
9977880.6
9955125
9932369
9909612.5
9886855.5
9864098.1
9841340.1
9818581.8
9795822.9
9773063.6
9750303.8
9727543.5
9704782.8
9682021.6
9659260
9636497.8
9613735.2
9590972.2
9568208.6
9545444.6
9522680.1
9499915.2
9477149.8
9454383.9
9431617.5
9408850.7
9386083.4
9363315.6
9340547.4
9317778.7
9295009.5
9272239.9
9249469.7
9226699.2
9203928.1
9181156.6
9158384.6
9135612.1
9112839.2
9090065.8
9067291.9
9044517.6
9021742.7
8998967.5
8976191.7
8953415.5
8930638.8
8907861.6
8885084
8862305.8
8839527.3
8816748.2
8793968.7
8771188.7
8748408.2
8725627.3
8702845.9
8680064
8657281.6
8634498.8
8611715.5
8588931.8
8566147.5
8543362.8
8520577.6
8497792
8475005.9
8452219.3
8429432.2
8406644.7
8383856.7
8361068.2
8338279.2
8315489.8
8292699.9
8269909.5
8247118.7
8224327.4
8201535.6
8178743.3
8155950.6
8133157.4
8110363.7
8087569.6
8064775
8041979.9
8019184.3
7996388.3
7973591.8
7950794.8
7927997.3
7905199.4
7882401
7859602.1
7836802.8
7814002.9
7791202.7
7768401.9
7745600.6
7722798.9
7699996.7
7677194.1
7654391
7631587.3
7608783.3
7585978.7
7563173.7
7540368.2
7517562.2
7494755.8
7471948.8
7449141.4
7426333.6
7403525.2
7380716.4
7357907.1
7335097.3
7312287.1
7289476.4
7266665.2
7243853.5
7221041.4
7198228.8
7175415.7
7152602.1
7129788.1
7106973.6
7084158.6
7061343.1
7038527.2
7015710.8
6992893.9
6970076.6
6947258.7
6924440.4
6901621.6
6878802.4
6855982.6
6833162.4
6810341.7
6787520.6
6764698.9
6741876.8
6719054.2
6696231.2
6673407.6
6650583.6
6627759.1
6604934.2
6582108.7
6559282.8
6536456.4
6513629.6
6490802.2
6467974.4
6445146.1
6422317.3
6399488.1
6376658.4
6353828.2
6330997.5
6308166.3
6285334.7
6262502.6
6239670
6216836.9
6194003.4
6171169.4
6148334.9
6125499.9
6102664.5
6079828.6
6056992.2
6034155.3
6011318
5988480.1
5965641.8
5942803
5919963.8
5897124
5874283.8
5851443.1
5828602
5805760.3
5782918.2
5760075.6
5737232.5
5714389
5691544.9
5668700.4
5645855.4
5623009.9
5600164
5577317.6
5554470.7
5531623.3
5508775.4
5485927.1
5463078.3
5440229
5417379.2
5394529
5371678.2
5348827
5325975.3
5303123.2
5280270.5
5257417.4
5234563.8
5211709.7
5188855.2
5166000.1
5143144.6
5120288.6
5097432.2
5074575.2
5051717.8
5028859.9
5006001.5
4983142.6
4960283.2
4937423.4
4914563.1
4891702.3
4868841.1
4845979.3
4823117.1
4800254.4
4777391.2
4754527.5
4731663.4
4708798.8
4685933.6
4663068.1
4640202
4617335.4
4594468.4
4571600.9
4548732.9
4525864.5
4502995.5
4480126.1
4457256.2
4434385.8
4411514.9
4388643.6
4365771.7
4342899.4
4320026.6
4297153.4
4274279.6
4251405.4
4228530.7
4205655.5
4182779.8
4159903.6
4137027
4114149.9
4091272.3
4068394.2
4045515.6
4022636.6
3999757
3976877
3953996.5
3931115.5
3908234.1
3885352.2
3862469.7
3839586.8
3816703.5
3793819.6
3770935.2
3748050.4
3725165.1
3702279.3
3679393
3656506.3
3633619
3610731.3
3587843.1
3564954.4
3542065.3
3519175.6
3496285.5
3473394.8
3450503.7
3427612.2
3404720.1
3381827.5
3358934.5
3336041
3313147
3290252.5
3267357.6
3244462.1
3221566.2
3198669.8
3175772.9
3152875.5
3129977.6
3107079.3
3084180.4
3061281.1
3038381.3
3015481
2992580.3
2969679
2946777.3
2923875.1
2900972.4
2878069.2
2855165.5
2832261.4
2809356.7
2786451.6
2763546
2740639.9
2717733.3
2694826.3
2671918.7
2649010.7
2626102.2
2603193.2
2580283.7
2557373.7
2534463.3
2511552.3
2488640.9
2465729
2442816.6
2419903.7
2396990.4
2374076.5
2351162.2
2328247.4
2305332.1
2282416.3
2259500
2236583.2
2213666
2190748.3
2167830.1
2144911.3
2121992.2
2099072.5
2076152.3
2053231.7
2030310.5
2007388.9
1984466.8
1961544.2
1938621.2
1915697.6
1892773.5
1869849
1846924
1823998.5
1801072.5
1778146
1755219
1732291.6
1709363.6
1686435.2
1663506.3
1640576.9
1617647
1594716.6
1571785.8
1548854.4
1525922.6
1502990.3
1480057.5
1457124.2
1434190.4
1411256.1
1388321.3
1365386.1
1342450.4
1319514.1
1296577.4
1273640.2
1250702.5
1227764.4
1204825.7
1181886.6
1158946.9
1136006.8
1113066.2
1090125.1
1067183.5
1044241.4
1021298.9
998355.8
975412.26
952468.23
929523.71
906578.7
883633.2
860687.22
837740.74
814793.78
791846.33
768898.39
745949.95
723001.03
700051.62
677101.72
654151.33
631200.45
608249.08
585297.23
562344.88
539392.04
516438.71
493484.89
470530.58
447575.78
424620.49
401664.72
378708.46
355751.72
332794.5
309836.81
286878.65
263920.03
240960.97
218001.48
195041.59
172081.32
149120.69
126159.75
103198.76
80238.24
57274.804
34296.734
11360.264
22793089
22750511
22712721
22679862
22649372
22620636
22593389
22567327
22542176
22517724
22493802
22470280
22447056
22424054
22401214
22378493
22355857
22333281
22310747
22288241
22265753
22243276
22220805
22198336
22175867
22153397
22130923
22108447
22085967
22063483
22040996
22018506
21996012
21973516
21951016
21928515
21906011
21883505
21860997
21838488
21815977
21793465
21770952
21748438
21725922
21703406
21680889
21658371
21635852
21613333
21590813
21568292
21545771
21523249
21500727
21478204
21455680
21433156
21410632
21388107
21365582
21343056
21320530
21298003
21275476
21252948
21230420
21207891
21185362
21162832
21140302
21117772
21095241
21072710
21050178
21027646
21005113
20982580
20960046
20937512
20914978
20892443
20869908
20847372
20824836
20802299
20779762
20757224
20734686
20712148
20689609
20667069
20644530
20621989
20599449
20576907
20554366
20531824
20509281
20486738
20464195
20441651
20419107
20396562
20374017
20351471
20328925
20306379
20283832
20261284
20238737
20216188
20193640
20171090
20148541
20125991
20103440
20080889
20058338
20035786
20013233
19990681
19968127
19945574
19923020
19900465
19877910
19855355
19832799
19810242
19787686
19765128
19742571
19720013
19697454
19674895
19652335
19629776
19607215
19584654
19562093
19539531
19516969
19494406
19471843
19449280
19426716
19404152
19381587
19359021
19336456
19313889
19291323
19268756
19246188
19223620
19201052
19178483
19155913
19133343
19110773
19088203
19065631
19043060
19020488
18997915
18975342
18952769
18930195
18907621
18885046
18862471
18839895
18817319
18794742
18772165
18749588
18727010
18704432
18681853
18659274
18636694
18614114
18591533
18568952
18546371
18523789
18501206
18478624
18456040
18433457
18410872
18388288
18365703
18343117
18320531
18297945
18275358
18252770
18230182
18207594
18185006
18162416
18139827
18117237
18094646
18072055
18049464
18026872
18004280
17981687
17959094
17936500
17913906
17891311
17868716
17846121
17823525
17800928
17778332
17755734
17733137
17710538
17687940
17665341
17642741
17620141
17597541
17574940
17552338
17529737
17507134
17484532
17461928
17439325
17416721
17394116
17371511
17348906
17326300
17303694
17281087
17258480
17235872
17213264
17190655
17168046
17145436
17122827
17100216
17077605
17054994
17032382
17009770
16987157
16964544
16941931
16919316
16896702
16874087
16851472
16828856
16806239
16783623
16761005
16738388
16715770
16693151
16670532
16647913
16625293
16602672
16580051
16557430
16534808
16512186
16489563
16466940
16444317
16421693
16399068
16376443
16353818
16331192
16308566
16285939
16263312
16240684
16218056
16195427
16172798
16150169
16127539
16104908
16082278
16059646
16037014
16014382
15991750
15969116
15946483
15923849
15901214
15878579
15855944
15833308
15810672
15788035
15765398
15742760
15720122
15697483
15674844
15652205
15629565
15606924
15584283
15561642
15539000
15516358
15493715
15471072
15448428
15425784
15403140
15380495
15357849
15335203
15312557
15289910
15267263
15244615
15221967
15199318
15176669
15154020
15131370
15108719
15086068
15063417
15040765
15018112
14995460
14972806
14950153
14927499
14904844
14882189
14859533
14836877
14814221
14791564
14768907
14746249
14723591
14700932
14678273
14655613
14632953
14610292
14587631
14564970
14542308
14519646
14496983
14474319
14451656
14428991
14406327
14383662
14360996
14338330
14315663
14292996
14270329
14247661
14224993
14202324
14179655
14156985
14134315
14111644
14088973
14066301
14043629
14020957
13998284
13975610
13952936
13930262
13907587
13884912
13862236
13839560
13816883
13794206
13771529
13748851
13726172
13703493
13680814
13658134
13635454
13612773
13590092
13567410
13544728
13522045
13499362
13476679
13453995
13431310
13408625
13385940
13363254
13340568
13317881
13295194
13272506
13249818
13227129
13204440
13181750
13159060
13136370
13113679
13090988
13068296
13045604
13022911
13000218
12977524
12954830
12932135
12909440
12886744
12864048
12841352
12818655
12795958
12773260
12750561
12727863
12705163
12682464
12659763
12637063
12614362
12591660
12568958
12546256
12523553
12500849
12478145
12455441
12432736
12410031
12387325
12364619
12341912
12319205
12296498
12273790
12251081
12228372
12205663
12182953
12160243
12137532
12114820
12092109
12069396
12046684
12023971
12001257
11978543
11955828
11933113
11910398
11887682
11864966
11842249
11819531
11796814
11774095
11751377
11728657
11705938
11683218
11660497
11637776
11615055
11592333
11569610
11546887
11524164
11501440
11478716
11455991
11433266
11410540
11387814
11365087
11342360
11319633
11296905
11274176
11251447
11228718
11205988
11183258
11160527
11137796
11115064
11092332
11069599
11046866
11024132
11001398
10978664
10955929
10933193
10910457
10887721
10864984
10842246
10819509
10796770
10774032
10751292
10728553
10705813
10683072
10660331
10637589
10614847
10592105
10569362
10546619
10523875
10501130
10478386
10455640
10432895
10410148
10387402
10364655
10341907
10319159
10296410
10273661
10250912
10228162
10205411
10182661
10159909
10137157
10114405
10091652
10068899
10046145
10023391
10000637
9977881.5
9955125.9
9932369.9
9909613.3
9886856.4
9864098.9
9841341
9818582.6
9795823.8
9773064.5
9750304.7
9727544.4
9704783.7
9682022.5
9659260.8
9636498.7
9613736.1
9590973
9568209.5
9545445.5
9522681
9499916
9477150.6
9454384.7
9431618.4
9408851.6
9386084.3
9363316.5
9340548.3
9317779.6
9295010.4
9272240.7
9249470.6
9226700
9203929
9181157.5
9158385.5
9135613
9112840.1
9090066.7
9067292.8
9044518.4
9021743.6
8998968.3
8976192.6
8953416.3
8930639.6
8907862.5
8885084.8
8862306.7
8839528.1
8816749.1
8793969.6
8771189.6
8748409.1
8725628.2
8702846.8
8680064.9
8657282.5
8634499.7
8611716.4
8588932.6
8566148.4
8543363.7
8520578.5
8497792.9
8475006.7
8452220.2
8429433.1
8406645.5
8383857.5
8361069.1
8338280.1
8315490.7
8292700.8
8269910.4
8247119.6
8224328.3
8201536.5
8178744.2
8155951.5
8133158.3
8110364.6
8087570.5
8064775.8
8041980.7
8019185.2
7996389.1
7973592.6
7950795.7
7927998.2
7905200.3
7882401.9
7859603
7836803.6
7814003.8
7791203.5
7768402.8
7745601.5
7722799.8
7699997.6
7677195
7654391.8
7631588.2
7608784.1
7585979.6
7563174.6
7540369.1
7517563.1
7494756.6
7471949.7
7449142.3
7426334.4
7403526.1
7380717.3
7357908
7335098.2
7312288
7289477.3
7266666.1
7243854.4
7221042.3
7198229.7
7175416.6
7152603
7129789
7106974.5
7084159.5
7061344
7038528.1
7015711.7
6992894.8
6970077.4
6947259.6
6924441.3
6901622.5
6878803.2
6855983.5
6833163.3
6810342.6
6787521.5
6764699.8
6741877.7
6719055.1
6696232.1
6673408.5
6650584.5
6627760
6604935.1
6582109.6
6559283.7
6536457.3
6513630.4
6490803.1
6467975.3
6445147
6422318.2
6399489
6376659.2
6353829
6330998.4
6308167.2
6285335.6
6262503.5
6239670.9
6216837.8
6194004.3
6171170.3
6148335.8
6125500.8
6102665.4
6079829.4
6056993.1
6034156.2
6011318.8
5988481
5965642.7
5942803.9
5919964.7
5897124.9
5874284.7
5851444
5828602.8
5805761.2
5782919.1
5760076.5
5737233.4
5714389.8
5691545.8
5668701.3
5645856.3
5623010.8
5600164.9
5577318.4
5554471.5
5531624.2
5508776.3
5485928
5463079.2
5440229.9
5417380.1
5394529.8
5371679.1
5348827.9
5325976.2
5303124.1
5280271.4
5257418.3
5234564.7
5211710.6
5188856.1
5166001
5143145.5
5120289.5
5097433
5074576.1
5051718.6
5028860.7
5006002.3
4983143.5
4960284.1
4937424.3
4914564
4891703.2
4868841.9
4845980.2
4823118
4800255.3
4777392.1
4754528.4
4731664.3
4708799.6
4685934.5
4663068.9
4640202.9
4617336.3
4594469.3
4571601.8
4548733.8
4525865.3
4502996.4
4480127
4457257.1
4434386.7
4411515.8
4388644.4
4365772.6
4342900.3
4320027.5
4297154.2
4274280.5
4251406.2
4228531.5
4205656.3
4182780.7
4159904.5
4137027.9
4114150.7
4091273.1
4068395
4045516.5
4022637.4
3999757.9
3976877.9
3953997.4
3931116.4
3908235
3885353
3862470.6
3839587.7
3816704.3
3793820.5
3770936.1
3748051.3
3725166
3702280.2
3679393.9
3656507.2
3633619.9
3610732.2
3587844
3564955.3
3542066.1
3519176.5
3496286.3
3473395.7
3450504.6
3427613
3404721
3381828.4
3358935.4
3336041.9
3313147.9
3290253.4
3267358.4
3244463
3221567
3198670.6
3175773.7
3152876.4
3129978.5
3107080.1
3084181.3
3061282
3038382.2
3015481.9
2992581.1
2969679.9
2946778.2
2923875.9
2900973.2
2878070.1
2855166.4
2832262.2
2809357.6
2786452.5
2763546.9
2740640.8
2717734.2
2694827.1
2671919.6
2649011.6
2626103.1
2603194.1
2580284.6
2557374.6
2534464.1
2511553.2
2488641.8
2465729.9
2442817.5
2419904.6
2396991.2
2374077.4
2351163.1
2328248.2
2305332.9
2282417.2
2259500.9
2236584.1
2213666.9
2190749.1
2167830.9
2144912.2
2121993
2099073.4
2076153.2
2053232.6
2030311.4
2007389.8
1984467.7
1961545.1
1938622
1915698.5
1892774.4
1869849.9
1846924.9
1823999.4
1801073.4
1778146.9
1755219.9
1732292.5
1709364.5
1686436.1
1663507.2
1640577.8
1617647.9
1594717.5
1571786.7
1548855.3
1525923.5
1502991.1
1480058.3
1457125
1434191.3
1411257
1388322.2
1365387
1342451.2
1319515
1296578.3
1273641.1
1250703.4
1227765.3
1204826.6
1181887.4
1158947.8
1136007.7
1113067.1
1090126
1067184.4
1044242.3
1021299.7
998356.68
975413.14
952469.11
929524.59
906579.58
883634.08
860688.09
837741.62
814794.66
791847.2
768899.26
745950.83
723001.91
700052.5
677102.6
654152.21
631201.33
608249.96
585298.1
562345.75
539392.91
516439.58
493485.76
470531.45
447576.65
424621.36
401665.59
378709.32
355752.58
332795.35
309837.64
286879.46
263920.82
240961.73
218002.2
195042.24
172081.9
149121.18
126160.12
103199.01
80238.308
57274.097
34295.434
11363.768
22784732
22742356
22705139
22673200
22643735
22615991
22589639
22564349
22539845
22515919
22492418
22469229
22446265
22423464
22400778
22378175
22355628
22333118
22310634
22288164
22265703
22243245
22220788
22198329
22175867
22153401
22130930
22108456
22085976
22063493
22041006
22018515
21996021
21973524
21951024
21928521
21906017
21883511
21861002
21838493
21815981
21793469
21770955
21748441
21725925
21703408
21680891
21658373
21635854
21613335
21590815
21568294
21545773
21523251
21500728
21478205
21455682
21433158
21410634
21388109
21365583
21343057
21320531
21298004
21275477
21252949
21230421
21207892
21185363
21162834
21140304
21117773
21095242
21072711
21050179
21027647
21005114
20982581
20960048
20937514
20914979
20892444
20869909
20847373
20824837
20802300
20779763
20757226
20734688
20712149
20689610
20667071
20644531
20621991
20599450
20576909
20554367
20531825
20509283
20486740
20464196
20441653
20419108
20396564
20374018
20351473
20328927
20306380
20283833
20261286
20238738
20216190
20193641
20171092
20148542
20125992
20103441
20080890
20058339
20035787
20013235
19990682
19968129
19945575
19923021
19900466
19877911
19855356
19832800
19810244
19787687
19765130
19742572
19720014
19697455
19674896
19652337
19629777