/*--------------------------------*- C++ -*----------------------------------*\
  =========                 |
  \\      /  F ield         | OpenFOAM: The Open Source CFD Toolbox
   \\    /   O peration     | Website:  https://openfoam.org
    \\  /    A nd           | Version:  6
     \\/     M anipulation  |
\*---------------------------------------------------------------------------*/
FoamFile
{
    version     2.0;
    format      ascii;
    class       volVectorField;
    location    "10000";
    object      grad(p);
}
// * * * * * * * * * * * * * * * * * * * * * * * * * * * * * * * * * * * * * //

dimensions      [0 1 -2 0 0 0 0];

internalField   nonuniform List<vector> 
10000
(
(-221137.18 6.0352907e-13 -17215.43)
(-409196.06 -6.0240705e-13 -10190.764)
(-355440.95 0 -12141.518)
(-324635.75 6.0058157e-13 -11597.029)
(-305600.64 0 -9932.2348)
(-288860.55 0 -8347.2955)
(-274625.45 0 -6917.2481)
(-263120.37 5.9764471e-13 -5622.1083)
(-253970.29 0 -4496.9112)
(-246775.23 0 -3551.6871)
(-241185.18 0 -2776.4576)
(-236890.14 5.9515068e-13 -2146.2341)
(-233615.11 5.9455928e-13 -1641.0256)
(-231140.08 0 -1250.8443)
(-229295.06 0 -940.68199)
(-227930.04 0 -705.5468)
(-226925.03 0 -520.42935)
(-226205.02 5.9167889e-13 -385.33717)
(-225695.02 5.9111026e-13 -275.25461)
(-225335.01 0 -200.19519)
(-225095.01 0 -140.14365)
(-224940.01 0 -95.102235)
(-224840 5.8884276e-13 -60.067576)
(-224785 0 -40.047055)
(-224765 0 -20.02453)
(-224765 0 -10.012766)
(-224780 0 -5.0066338)
(-224805 0 5.0068845)
(-224830 0 10.01427)
(-224855 5.8487804e-13 10.014772)
(-224885 0 10.015273)
(-224920 0 10.015775)
(-224950 0 15.024415)
(-224970 0 10.016778)
(-225000 5.8204245e-13 10.01728)
(-225025 0 10.017782)
(-225040 0 10.018283)
(-225060 0 5.0093926)
(-225080 0 5.0096436)
(-225100 5.792038e-13 5.0098945)
(-225110 0 10.020291)
(-225120 0 5.0103965)
(-225140 0 5.0106476)
(-225150 0 10.021797)
(-225155 0 5.0111498)
(-225165 0 5.0114009)
(-225175 0 5.0116521)
(-225180 0 5.0119032)
(-225185 0 5.0121545)
(-225195 0 0)
(-225205 0 0)
(-225210 5.7238178e-13 5.0129082)
(-225215 0 5.0131595)
(-225220 0 5.0134109)
(-225225 0 5.0136622)
(-225230 0 5.0139136)
(-225235 5.6953603e-13 0)
(-225240 0 0)
(-225245 0 0)
(-225255 0 0)
(-225260 0 5.0151709)
(-225260 5.6668852e-13 5.0154224)
(-225265 0 5.015674)
(-225270 0 5.0159256)
(-225275 0 5.0161772)
(-225280 0 5.0164288)
(-225280 0 5.0166804)
(-225285 0 0)
(-225295 5.6269908e-13 0)
(-225300 0 5.0174356)
(-225300 0 5.0176873)
(-225305 0 0)
(-225315 0 0)
(-225315 5.5984739e-13 5.0184428)
(-225320 0 0)
(-225325 0 5.0189465)
(-225325 0 0)
(-225335 0 0)
(-225340 5.5699399e-13 5.0197023)
(-225340 0 5.0199543)
(-225345 0 0)
(-225355 0 0)
(-225355 0 5.0207104)
(-225360 5.5413885e-13 0)
(-225365 0 5.0212146)
(-225370 0 0)
(-225375 0 5.0217189)
(-225375 0 0)
(-225385 0 0)
(-225390 0 5.0224756)
(-225390 5.5013873e-13 5.0227278)
(-225395 0 5.0229801)
(-225400 0 5.0232325)
(-225405 0 0)
(-225410 0 5.0237371)
(-225410 5.4727944e-13 5.0239896)
(-225420 0 0)
(-225425 0 5.0244944)
(-225425 0 0)
(-225430 0 5.0249994)
(-225435 5.4441841e-13 0)
(-225440 0 0)
(-225445 0 0)
(-225450 0 0)
(-225455 0 0)
(-225460 0 5.0265149)
(-225465 0 0)
(-225470 0 5.0270202)
(-225470 0 5.027273)
(-225475 0 5.0275257)
(-225480 0 5.0277785)
(-225485 0 0)
(-225490 5.3754485e-13 5.0282841)
(-225495 0 0)
(-225500 0 5.0287898)
(-225500 0 5.0290427)
(-225505 0 0)
(-225515 5.3467791e-13 0)
(-225520 0 5.0298016)
(-225520 0 5.0300546)
(-225525 0 5.0303076)
(-225530 0 5.0305607)
(-225535 5.3180924e-13 5.0308137)
(-225540 0 5.0310668)
(-225540 0 5.0313199)
(-225545 0 0)
(-225555 0 0)
(-225560 0 5.0320795)
(-225560 0 5.0323327)
(-225565 5.2779017e-13 5.032586)
(-225570 0 5.0328393)
(-225575 0 5.0330926)
(-225580 0 5.0333459)
(-225580 0 5.0335993)
(-225585 5.2491731e-13 0)
(-225595 0 0)
(-225600 0 5.0343595)
(-225600 0 5.034613)
(-225605 0 0)
(-225610 5.220427e-13 0)
(-225615 0 0)
(-225620 0 0)
(-225625 0 0)
(-225630 0 5.0361343)
(-225630 0 5.0363879)
(-225635 0 0)
(-225645 0 0)
(-225650 0 5.037149)
(-225650 0 5.0374027)
(-225655 0 0)
(-225660 0 5.0379103)
(-225665 5.1513652e-13 0)
(-225670 0 5.0384179)
(-225670 0 5.0386718)
(-225675 0 0)
(-225685 0 0)
(-225690 5.1225598e-13 5.0394336)
(-225690 0 5.0396875)
(-225695 0 0)
(-225700 0 5.0401956)
(-225705 0 0)
(-225710 0 5.0407037)
(-225715 0 0)
(-225720 0 5.0412119)
(-225720 0 5.041466)
(-225725 0 0)
(-225730 0 0)
(-225735 0 0)
(-225745 0 0)
(-225745 0 5.0427372)
(-225750 0 0)
(-225755 0 5.0432458)
(-225755 0 0)
(-225765 0 0)
(-225770 0 5.044009)
(-225770 0 5.0442634)
(-225775 -5.0071626e-13 0)
(-225785 0 0)
(-225785 0 5.0450269)
(-225790 0 0)
(-225795 0 5.045536)
(-225795 -4.9782694e-13 0)
(-225805 0 0)
(-225810 0 0)
(-225815 0 0)
(-225820 0 5.0468092)
(-225820 -4.9493585e-13 5.0470639)
(-225825 0 5.0473186)
(-225830 0 5.0475734)
(-225835 0 0)
(-225840 4.9262173e-13 5.048083)
(-225845 0 0)
(-225850 0 5.0485927)
(-225850 0 5.0488476)
(-225855 0 0)
(-225865 4.8972748e-13 0)
(-225870 0 5.0496124)
(-225870 0 5.0498674)
(-225875 -4.8799007e-13 0)
(-225880 0 5.0503775)
(-225885 4.8683146e-13 0)
(-225890 -4.8625205e-13 5.0508877)
(-225895 0 0)
(-225900 -4.85093e-13 5.051398)
(-225900 0 5.0516532)
(-225905 0 0)
(-225915 -4.8335392e-13 0)
(-225915 0 5.0524188)
(-225920 -4.8219418e-13 0)
(-225930 0 5.0529294)
(-225930 0 5.0531848)
(-225930 -4.8045402e-13 5.0534401)
(-225940 4.7987383e-13 0)
(-225945 0 5.0539509)
(-225945 -4.7871323e-13 0)
(-225955 0 0)
(-225960 0 5.0547173)
(-225960 4.7697181e-13 5.0549728)
(-225965 0 5.0552284)
(-225970 -4.7581051e-13 5.0554839)
(-225975 0 0)
(-225980 0 5.0559952)
(-225985 4.7406802e-13 0)
(-225990 -4.7348705e-13 5.0565065)
(-225990 4.7290601e-13 5.0567622)
(-225995 0 0)
(-226005 -4.7174372e-13 0)
(-226010 0 5.0575294)
(-226010 -4.7058114e-13 5.0577852)
(-226015 0 0)
(-226020 0 5.0582968)
(-226025 -4.6883674e-13 0)
(-226030 0 5.0588087)
(-226035 -4.6767346e-13 5.0590646)
(-226040 0 5.0593205)
(-226040 0 5.0595765)
(-226045 -4.6592799e-13 0)
(-226055 0 0)
(-226055 0 5.0603446)
(-226060 0 0)
(-226070 0 5.0608568)
(-226070 0 5.0611129)
(-226075 0 5.0613691)
(-226080 0 5.0616253)
(-226080 0 5.0618815)
(-226085 0 0)
(-226095 0 0)
(-226100 0 5.0626503)
(-226100 -4.5893974e-13 5.0629066)
(-226105 4.5835692e-13 0)
(-226110 0 0)
(-226115 0 0)
(-226120 0 0)
(-226125 -4.5602495e-13 0)
(-226130 -4.5544177e-13 0)
(-226135 0 0)
(-226140 0 5.0649581)
(-226140 0 5.0652146)
(-226145 -4.5310838e-13 0)
(-226155 -4.5252485e-13 0)
(-226160 0 5.0659845)
(-226160 0 5.0662411)
(-226165 0 5.0664978)
(-226170 0 5.0667545)
(-226175 -4.4960614e-13 5.0670112)
(-226180 0 5.067268)
(-226180 0 5.0675248)
(-226185 0 0)
(-226195 0 0)
(-226200 -4.4668564e-13 5.0682953)
(-226200 0 5.0685522)
(-226205 0 0)
(-226210 0 0)
(-226215 0 0)
(-226220 4.4376335e-13 0)
(-226225 0 0)
(-226230 -4.4259395e-13 5.0700941)
(-226235 0 0)
(-226240 0 5.0706082)
(-226240 -4.4083928e-13 5.0708653)
(-226245 0 0)
(-226255 -4.3966915e-13 0)
(-226255 0 5.0716369)
(-226260 0 0)
(-226265 -4.3791343e-13 5.0721514)
(-226270 0 0)
(-226275 -4.3674258e-13 5.0726659)
(-226275 0 0)
(-226285 0 0)
(-226290 -4.3498578e-13 0)
(-226295 4.3440003e-13 0)
(-226300 0 5.0739529)
(-226300 0 5.0742103)
(-226305 0 5.0744678)
(-226310 -4.3205634e-13 5.0747253)
(-226315 4.3147024e-13 0)
(-226320 0 5.0752404)
(-226325 0 0)
(-226330 -4.297115e-13 5.0757556)
(-226335 4.2912512e-13 5.0760133)
(-226340 4.2853864e-13 5.076271)
(-226340 -4.2795211e-13 5.0765287)
(-226345 0 0)
(-226350 -4.2677883e-13 0)
(-226355 -4.2619209e-13 0)
(-226365 0 0)
(-226365 -4.2501837e-13 5.0778176)
(-226370 0 0)
(-226375 -4.2384437e-13 5.0783333)
(-226380 -4.2325727e-13 0)
(-226385 0 5.0788491)
(-226385 -4.2208283e-13 0)
(-226395 4.2149551e-13 0)
(-226400 0 5.0796231)
(-226400 -4.2032064e-13 5.0798811)
(-226405 0 0)
(-226410 0 0)
(-226415 4.1855781e-13 0)
(-226420 0 0)
(-226425 -4.1738223e-13 0)
(-226430 -4.1679432e-13 0)
(-226435 4.1620636e-13 0)
(-226440 -4.156183e-13 0)
(-226445 -4.1503019e-13 0)
(-226450 4.14442e-13 5.082463)
(-226450 -4.1385374e-13 5.0827213)
(-226455 -4.1326541e-13 0)
(-226460 4.12677e-13 0)
(-226465 -4.1208854e-13 0)
(-226475 4.1149998e-13 0)
(-226475 -4.1091136e-13 5.0840133)
(-226475 -4.1032267e-13 0)
(-226485 4.0973391e-13 0)
(-226490 -4.0914507e-13 0)
(-226495 0 0)
(-226500 4.0796718e-13 5.085306)
(-226500 -4.0737813e-13 5.0855646)
(-226505 0 0)
(-226515 4.061998e-13 0)
(-226520 0 5.0863406)
(-226520 -4.0502118e-13 5.0865994)
(-226525 4.0443177e-13 5.0868581)
(-226530 0 5.0871169)
(-226535 4.0325273e-13 5.0873757)
(-226540 0 5.0876345)
(-226540 -4.0207339e-13 5.0878934)
(-226545 4.0148361e-13 0)
(-226555 0 0)
(-226560 -4.0030384e-13 5.0886701)
(-226560 3.9971385e-13 5.088929)
(-226565 -3.9912378e-13 0)
(-226575 0 0)
(-226575 3.9794343e-13 5.089706)
(-226580 -3.9735315e-13 0)
(-226585 3.9676279e-13 5.0902242)
(-226590 -3.9617237e-13 0)
(-226595 0 5.0907425)
(-226595 3.9499129e-13 0)
(-226605 -3.9440065e-13 0)
(-226610 -3.9380993e-13 5.0915201)
(-226610 3.9321914e-13 5.0917793)
(-226615 0 0)
(-226625 0 0)
(-226630 3.9144633e-13 5.0925572)
(-226630 -3.9085524e-13 5.0928166)
(-226635 -3.902641e-13 5.093076)
(-226640 3.8967286e-13 5.0933354)
(-226645 0 5.0935948)
(-226650 3.8849019e-13 5.0938542)
(-226650 -3.8789875e-13 5.0941138)
(-226655 -3.8730724e-13 0)
(-226665 3.8671565e-13 0)
(-226670 0 0)
(-226670 0 0)
(-226675 3.8494045e-13 0)
(-226685 -3.8434856e-13 0)
(-226690 -3.8375661e-13 5.0959309)
(-226690 3.8316458e-13 5.0961906)
(-226695 0 5.0964503)
(-226700 3.8198031e-13 5.0967101)
(-226700 -3.8138807e-13 5.0969699)
(-226710 -3.8079576e-13 0)
(-226715 3.8020336e-13 5.0974895)
(-226715 0 0)
(-226725 -3.7901837e-13 0)
(-226730 3.7842576e-13 5.0982691)
(-226730 -3.7783308e-13 5.0985291)
(-226735 0 0)
(-226740 3.7664751e-13 5.099049)
(-226745 -3.760546e-13 0)
(-226750 0 0)
(-226755 3.7486859e-13 0)
(-226760 0 0)
(-226765 3.7368228e-13 0)
(-226770 -3.7308902e-13 5.1006095)
(-226775 0 0)
(-226780 3.7190226e-13 5.1011299)
(-226780 0 5.1013901)
(-226785 -3.7071522e-13 0)
(-226790 3.7012159e-13 0)
(-226795 0 0)
(-226805 -3.6893412e-13 0)
(-226805 3.6834027e-13 5.1026917)
(-226810 -3.6774636e-13 0)
(-226815 3.6715236e-13 5.1032125)
(-226820 0 0)
(-226825 -3.6596415e-13 5.1037334)
(-226825 3.6536994e-13 0)
(-226835 -3.6477565e-13 0)
(-226840 -3.641813e-13 5.1045149)
(-226840 3.6358686e-13 5.1047755)
(-226845 -3.6299236e-13 0)
(-226855 -3.6239778e-13 0)
(-226855 3.6180312e-13 5.1055574)
(-226860 -3.6120841e-13 0)
(-226870 -3.606136e-13 5.1060788)
(-226870 3.6001873e-13 5.1063395)
(-226870 -3.5942379e-13 5.1066003)
(-226880 3.5882877e-13 0)
(-226885 -3.5823367e-13 5.1071219)
(-226885 -3.5763851e-13 0)
(-226895 3.5704328e-13 0)
(-226900 -3.5644797e-13 5.1079045)
(-226900 -3.5585258e-13 5.1081654)
(-226905 3.5525712e-13 0)
(-226915 -3.5466159e-13 0)
(-226920 -3.5406598e-13 5.1089483)
(-226920 3.534703e-13 5.1092093)
(-226925 -3.5287456e-13 5.1094704)
(-226930 3.5227873e-13 5.1097315)
(-226935 -3.5168284e-13 5.1099926)
(-226940 -3.5108686e-13 5.1102537)
(-226940 3.5049082e-13 5.1105149)
(-226945 -3.498947e-13 0)
(-226955 0 0)
(-226960 3.4870225e-13 5.1112985)
(-226960 -3.481059e-13 0)
(-226965 0 0)
(-226975 3.4691301e-13 0)
(-226980 0 5.1123438)
(-226980 3.4571982e-13 5.1126051)
(-226985 -3.4512312e-13 5.1128665)
(-226990 0 5.113128)
(-226995 3.4392947e-13 0)
(-227000 0 5.1136509)
(-227005 -3.4273556e-13 5.1139124)
(-227010 3.4213847e-13 5.1141739)
(-227010 0 5.1144355)
(-227015 -3.4094411e-13 0)
(-227025 3.4034682e-13 0)
(-227030 -3.3974945e-13 5.1152203)
(-227030 0 5.115482)
(-227035 3.3855449e-13 0)
(-227040 -3.3795691e-13 5.1160054)
(-227045 3.3735924e-13 0)
(-227050 -3.367615e-13 0)
(-227055 0 0)
(-227060 3.355658e-13 0)
(-227065 -3.3496785e-13 0)
(-227070 -3.3436982e-13 5.1175763)
(-227075 3.3377171e-13 0)
(-227080 0 5.1181002)
(-227080 0 5.1183621)
(-227085 3.3197695e-13 0)
(-227095 -3.3137855e-13 0)
(-227095 3.3078008e-13 5.1191482)
(-227100 0 0)
(-227110 0 5.1196723)
(-227110 3.2898421e-13 5.1199345)
(-227115 -3.2838545e-13 5.1201966)
(-227120 -3.277866e-13 5.1204588)
(-227125 3.2718769e-13 5.120721)
(-227130 0 5.1209832)
(-227130 0 5.1212455)
(-227135 3.2539049e-13 0)
(-227145 -3.2479128e-13 0)
(-227150 -3.2419199e-13 5.1220324)
(-227150 3.2359263e-13 5.1222948)
(-227155 0 0)
(-227165 3.2239368e-13 0)
(-227170 -3.217941e-13 5.1230821)
(-227170 -3.2119444e-13 5.1233445)
(-227175 3.2059471e-13 5.123607)
(-227180 0 5.1238695)
(-227185 -3.1939502e-13 0)
(-227190 3.1879507e-13 5.1243947)
(-227195 -3.1819505e-13 5.1246573)
(-227200 0 5.1249199)
(-227200 3.1699476e-13 5.1251826)
(-227205 -3.1639451e-13 0)
(-227215 3.1579419e-13 0)
(-227220 -3.1519379e-13 5.1259707)
(-227220 0 5.1262335)
(-227225 3.1399277e-13 0)
(-227230 -3.1339215e-13 0)
(-227235 0 0)
(-227245 3.1219069e-13 0)
(-227245 0 5.1275477)
(-227250 -3.1098893e-13 0)
(-227255 3.1038793e-13 5.1280736)
(-227255 0 0)
(-227265 -3.0918573e-13 0)
(-227270 3.0858451e-13 0)
(-227275 -3.0798322e-13 0)
(-227280 3.0738186e-13 5.1293888)
(-227280 0 5.1296519)
(-227285 -3.0617891e-13 0)
(-227295 3.0557732e-13 0)
(-227295 -3.0497566e-13 5.1304415)
(-227300 -3.0437393e-13 0)
(-227310 3.0377212e-13 5.1309679)
(-227310 -3.0317023e-13 5.1312312)
(-227315 -3.0256828e-13 5.1314946)
(-227320 3.0196624e-13 5.1317579)
(-227320 -3.0136414e-13 5.1320213)
(-227330 3.0076196e-13 0)
(-227335 -3.0015969e-13 5.1325481)
(-227335 -2.9955736e-13 0)
(-227345 2.9895496e-13 0)
(-227350 -2.9835248e-13 5.1333385)
(-227350 -2.9774993e-13 5.133602)
(-227355 2.971473e-13 0)
(-227365 -2.9654459e-13 0)
(-227370 -2.9594181e-13 5.1343927)
(-227370 2.9533896e-13 5.1346564)
(-227375 -2.9473604e-13 5.13492)
(-227380 -2.9413303e-13 5.1351837)
(-227385 2.9352996e-13 5.1354474)
(-227390 -2.929268e-13 5.1357112)
(-227395 2.9232358e-13 5.1359749)
(-227400 -2.9172027e-13 5.1362387)
(-227400 -2.911169e-13 5.1365025)
(-227405 2.9051346e-13 0)
(-227415 -2.8990993e-13 0)
(-227420 0 5.1372942)
(-227420 2.8870266e-13 5.1375581)
(-227425 -2.8809891e-13 0)
(-227435 0 0)
(-227440 2.8689119e-13 5.1383501)
(-227440 0 5.1386141)
(-227445 2.8568317e-13 5.1388782)
(-227450 -2.8507904e-13 5.1391423)
(-227455 0 0)
(-227460 2.8387057e-13 5.1396705)
(-227465 0 0)
(-227470 -2.826618e-13 5.1401989)
(-227470 2.8205731e-13 5.1404631)
(-227480 0 0)
(-227485 -2.8084808e-13 5.1409917)
(-227485 2.8024336e-13 0)
(-227495 -2.7963857e-13 0)
(-227500 0 5.1417847)
(-227500 2.7842875e-13 5.1420491)
(-227505 -2.7782374e-13 5.1423135)
(-227510 2.7721864e-13 5.142578)
(-227515 -2.7661346e-13 0)
(-227520 0 0)
(-227525 2.754029e-13 0)
(-227530 -2.747975e-13 0)
(-227535 -2.7419203e-13 0)
(-227540 2.7358648e-13 0)
(-227545 0 0)
(-227549.5 0 5.1446945)
(-227552.5 2.717694e-13 2.5724796)
(-227558 -2.7116355e-13 2.572612)
(-227562.5 2.7055763e-13 2.5727443)
(-227567.5 0 2.5728767)
(-227572 0 2.5730091)
(-227576.5 2.6873941e-13 2.5731415)
(-227581.5 -2.6813319e-13 2.0586192)
(-227586.5 -2.6752689e-13 2.5734064)
(-227591 2.6692052e-13 2.5735389)
(-227595.5 0 2.5736713)
(-227600 0 2.5738038)
(-227605 2.6510095e-13 2.0591491)
(-227610 -2.6449428e-13 2.5740688)
(-227614 2.6388753e-13 2.5742014)
(-227619 0 2.5743339)
(-227624 0 2.5744664)
(-227628 2.6206683e-13 2.574599)
(-227633 -2.6145978e-13 2.5747316)
(-227638 -2.6085266e-13 2.5748642)
(-227642.5 2.6024546e-13 2.5749968)
(-227647 0 2.5751294)
(-227651.5 -2.5903083e-13 2.575262)
(-227656.5 2.5842341e-13 2.5753947)
(-227661.5 -2.578159e-13 2.5755273)
(-227666 0 2.57566)
(-227670.5 2.5660067e-13 2.5757927)
(-227675.5 -2.5599294e-13 2.5759254)
(-227680 2.5538514e-13 2.5760581)
(-227684.5 -2.5477726e-13 2.5761908)
(-227689.5 0 2.5763236)
(-227694 2.5356128e-13 2.5764563)
(-227698.5 -2.5295317e-13 2.5765891)
(-227703.5 0 2.0613775)
(-227708.5 2.5173674e-13 2.5768547)
(-227713 0 2.5769875)
(-227717.5 -2.5052e-13 2.5771203)
(-227722.5 2.4991151e-13 2.5772532)
(-227727 0 2.577386)
(-227731.5 2.4869432e-13 2.5775189)
(-227736.5 0 2.5776518)
(-227741 -2.4747682e-13 2.5777847)
(-227745.5 2.4686797e-13 2.5779176)
(-227750.5 0 2.0624404)
(-227755.5 -2.4565002e-13 2.5781834)
(-227760 2.4504093e-13 2.5783164)
(-227764.5 -2.4443176e-13 2.5784493)
(-227769.5 -2.4382253e-13 2.5785823)
(-227774 2.4321321e-13 2.5787153)
(-227778.5 -2.4260382e-13 2.5788483)
(-227783.5 -2.4199435e-13 2.063185)
(-227788.5 2.4138481e-13 2.5791143)
(-227793 -2.4077519e-13 2.5792474)
(-227797.5 2.401655e-13 2.5793804)
(-227802.5 -2.3955573e-13 2.5795135)
(-227807 -2.3894588e-13 2.5796466)
(-227811.5 2.3833596e-13 2.5797797)
(-227816.5 -2.3772597e-13 2.5799128)
(-227821 -2.371159e-13 2.5800459)
(-227826 2.3650575e-13 2.0641433)
(-227831 -2.3589552e-13 2.5803122)
(-227835 -2.3528522e-13 2.5804454)
(-227840 2.3467485e-13 2.5805786)
(-227845 -2.3406439e-13 2.5807118)
(-227849 2.3345387e-13 2.580845)
(-227854 -2.3284326e-13 2.0647825)
(-227859 -2.3223258e-13 2.5811114)
(-227863.5 2.3162183e-13 2.5812447)
(-227868.5 -2.31011e-13 2.5813779)
(-227873 -2.3040009e-13 2.5815112)
(-227877.5 2.2978911e-13 2.5816445)
(-227882.5 -2.2917805e-13 2.5817778)
(-227887.5 0 2.5819111)
(-227892 2.279557e-13 2.5820445)
(-227896.5 -2.2734441e-13 2.5821778)
(-227901 0 2.5823112)
(-227906 2.2612161e-13 2.0659556)
(-227911 0 2.5825779)
(-227915.5 2.248985e-13 2.5827113)
(-227920 0 2.5828448)
(-227925 0 2.0663825)
(-227930 0 2.5831116)
(-227934.5 -2.2245137e-13 2.5832451)
(-227939 0 2.5833785)
(-227943.5 0 2.583512)
(-227948.5 0 2.5836455)
(-227953.5 0 2.583779)
(-227958 2.1939075e-13 2.5839126)
(-227962.5 0 2.5840461)
(-227967.5 0 2.5841797)
(-227972.5 0 2.5843132)
(-227977 0 2.5844468)
(-227981.5 2.1632822e-13 2.5845804)
(-227986.5 0 2.584714)
(-227991 -2.1510267e-13 2.5848476)
(-227995.5 2.1448979e-13 2.5849813)
(-228000.5 0 2.0680919)
(-228005.5 0 2.5852486)
(-228010 2.1265067e-13 2.5853823)
(-228015 -2.1203747e-13 2.0684128)
(-228019.5 0 2.5856496)
(-228024 0 2.0686267)
(-228029 0 2.5859171)
(-228033.5 2.0958394e-13 2.5860508)
(-228038.5 -2.0897037e-13 2.0689477)
(-228043.5 0 2.5863184)
(-228048 0 2.5864522)
(-228052.5 0 2.586586)
(-228057.5 0 2.5867198)
(-228062 0 2.5868536)
(-228067 0 2.5869875)
(-228071.5 -2.046732e-13 2.5871213)
(-228076 2.0405902e-13 2.0698042)
(-228081.5 0 2.5873891)
(-228086 0 2.587523)
(-228090.5 0 2.5876569)
(-228095 -2.016015e-13 2.5877908)
(-228100 2.0098693e-13 2.0703398)
(-228105 0 2.5880587)
(-228109.5 0 2.5881927)
(-228114.5 1.9914277e-13 2.5883266)
(-228119 -1.9852789e-13 2.5884606)
(-228123.5 0 2.5885947)
(-228128.5 1.9729791e-13 2.5887287)
(-228133 0 2.5888627)
(-228138 1.9606762e-13 2.0711974)
(-228143 -1.9545236e-13 2.5891308)
(-228147.5 0 2.5892649)
(-228152 1.9422161e-13 2.589399)
(-228157 0 2.0716265)
(-228162 0 2.5896672)
(-228166.5 0 2.5898014)
(-228171 0 2.5899355)
(-228176 -1.911434e-13 2.5900697)
(-228181 0 2.5902039)
(-228185.5 0 2.590338)
(-228190 0 2.5904722)
(-228195 1.8867944e-13 2.5906065)
(-228200 -1.8806326e-13 2.5907407)
(-228204 0 2.5908749)
(-228209 0 2.0728074)
(-228214 0 2.5911435)
(-228219 1.8559776e-13 2.0730222)
(-228223.5 -1.849812e-13 2.5914121)
(-228228 0 2.0732371)
(-228233 1.8374784e-13 2.5916807)
(-228238 0 2.073452)
(-228242.5 0 2.5919494)
(-228247 1.8189722e-13 2.073667)
(-228252 0 2.5922182)
(-228257 1.8066308e-13 2.0738821)
(-228262 0 2.592487)
(-228266 0 2.5926214)
(-228271 1.7881131e-13 2.5927558)
(-228276 0 2.5928903)
(-228280.5 -1.775764e-13 2.5930248)
(-228285.5 0 2.5931592)
(-228290 0 2.5932937)
(-228294.5 0 2.5934283)
(-228299.5 0 2.5935628)
(-228304.5 -1.744878e-13 2.5936973)
(-228309.5 0 2.5938319)
(-228314 1.7325181e-13 2.5939664)
(-228318.5 0 2.594101)
(-228323.5 0 2.5942356)
(-228328 -1.7139726e-13 2.5943702)
(-228333 0 2.0756039)
(-228338 1.701605e-13 2.5946395)
(-228342.5 0 2.5947741)
(-228347 0 2.5949088)
(-228352 1.6830479e-13 2.0760348)
(-228357 0 2.5951782)
(-228361.5 -1.6706726e-13 2.5953129)
(-228366.5 1.6644838e-13 2.5954476)
(-228371 0 2.5955823)
(-228376 1.6521039e-13 2.5957171)
(-228381 0 2.5958518)
(-228385.5 -1.6397208e-13 2.5959866)
(-228390 1.6335282e-13 2.5961214)
(-228394.5 0 2.5962562)
(-228400 0 2.0771128)
(-228405 0 2.5965259)
(-228409 -1.6087497e-13 2.5966607)
(-228414 0 2.5967956)
(-228419 0 2.5969304)
(-228423.5 0 2.5970653)
(-228428.5 0 2.5972002)
(-228433 1.5777593e-13 2.5973351)
(-228438 0 2.5974701)
(-228443 0 2.597605)
(-228447.5 0 2.59774)
(-228452 0 2.5978749)
(-228457 1.5467494e-13 2.0784079)
(-228462 0 2.5981449)
(-228466.5 -1.53434e-13 2.5982799)
(-228471.5 1.5281342e-13 2.598415)
(-228476.5 0 2.59855)
(-228481 0 2.5986851)
(-228485.5 1.5095119e-13 2.5988201)
(-228490.5 -1.503303e-13 2.5989552)
(-228495.5 1.4970932e-13 2.5990903)
(-228500 0 2.5992254)
(-228505 0 2.5993606)
(-228510 1.4784593e-13 2.5994957)
(-228514 -1.4722465e-13 2.5996309)
(-228519 0 2.0798128)
(-228524.5 0 2.5999012)
(-228529 0 2.6000364)
(-228533.5 0 2.6001716)
(-228538.5 0 2.6003068)
(-228543 0 2.6004421)
(-228547.5 -1.4287348e-13 2.6005773)
(-228553 1.4225157e-13 2.0805701)
(-228558 0 2.6008479)
(-228562 0 2.6009832)
(-228567 0 2.6011185)
(-228572 -1.3976316e-13 2.6012538)
(-228576.5 1.3914087e-13 2.6013891)
(-228581.5 0 2.6015245)
(-228586.5 0 2.6016599)
(-228591 1.3727351e-13 2.6017952)
(-228596 -1.366509e-13 2.0815445)
(-228601 0 2.602066)
(-228605.5 1.3540544e-13 2.6022015)
(-228610 0 2.6023369)
(-228615 1.3415968e-13 2.6024723)
(-228620 -1.3353668e-13 2.6026078)
(-228624.5 0 2.6027433)
(-228629.5 1.3229045e-13 2.6028788)
(-228634.5 0 2.6030143)
(-228639 0 2.6031498)
(-228643.5 0 2.6032853)
(-228648.5 0 2.6034209)
(-228653.5 -1.291735e-13 2.0828452)
(-228658.5 0 2.603692)
(-228663 0 2.6038276)
(-228668 0 2.0831706)
(-228673 1.2667853e-13 2.6040989)
(-228677.5 -1.260546e-13 2.6042345)
(-228682 0 2.6043701)
(-228687 0 2.6045058)
(-228692 0 2.6046415)
(-228696.5 1.2355807e-13 2.6047772)
(-228701.5 -1.2293374e-13 2.6049129)
(-228706.5 0 2.6050486)
(-228711 1.2168485e-13 2.6051843)
(-228716 0 2.6053201)
(-228721 0 2.6054558)
(-228725.5 1.1981092e-13 2.6055916)
(-228730 0 2.6057274)
(-228735 1.1856125e-13 2.6058632)
(-228740 0 2.605999)
(-228744.5 0 2.6061348)
(-228749.5 1.1668615e-13 2.6062707)
(-228754.5 0 2.6064066)
(-228759.5 -1.1543569e-13 2.6065424)
(-228764 0 2.6066783)
(-228768.5 0 2.6068142)
(-228773.5 0 2.6069501)
(-228778.5 0 2.6070861)
(-228783.5 -1.1230816e-13 2.607222)
(-228788 0 2.607358)
(-228793 0 2.6074939)
(-228798 0 2.6076299)
(-228802.5 0 2.6077659)
(-228807 -1.0917868e-13 2.6079019)
(-228812 0 2.0864304)
(-228817 1.0792633e-13 2.608174)
(-228821.5 0 2.6083101)
(-228827 0 2.0867569)
(-228831.5 1.0604723e-13 2.6085822)
(-228836 0 2.6087183)
(-228841 -1.047941e-13 2.6088544)
(-228846 1.0416741e-13 2.0871925)
(-228851 0 2.6091267)
(-228855.5 1.0291381e-13 2.6092629)
(-228860.5 0 2.6093991)
(-228865 -1.0165989e-13 2.6095352)
(-228870 1.0103281e-13 2.6096714)
(-228875 0 2.6098077)
(-228879.5 0 2.6099439)
(-228884.5 0 2.6100801)
(-228889 -9.8523714e-14 2.6102164)
(-228894 0 2.6103527)
(-228899 0 2.6104889)
(-228903.5 0 2.6106252)
(-228908.5 0 2.0886092)
(-228913.5 -9.5385569e-14 2.0887183)
(-228918.5 0 2.6110342)
(-228923 0 2.6111706)
(-228928 0 2.0890456)
(-228933 0 2.6114433)
(-228937.5 0 2.6115797)
(-228942.5 0 2.6117162)
(-228947 -9.0988849e-14 2.6118526)
(-228952 9.0360432e-14 2.611989)
(-228957 0 2.6121255)
(-228961.5 8.9103357e-14 2.612262)
(-228966.5 8.8474702e-14 2.6123984)
(-228971.5 -8.7845967e-14 2.6125349)
(-228976.5 8.7217153e-14 2.6126715)
(-228981 0 2.612808)
(-228985.5 8.5959288e-14 2.6129445)
(-228991 8.5330236e-14 2.0904649)
(-228996 -8.4701105e-14 2.6132177)
(-229000 0 2.6133542)
(-229005 0 2.0907927)
(-229010.5 8.281324e-14 2.6136275)
(-229015 0 2.6137641)
(-229019.5 0 2.6139007)
(-229024.5 0 2.6140374)
(-229029.5 0 2.6141741)
(-229034.5 7.9665212e-14 2.6143107)
(-229039 0 2.6144474)
(-229044 0 2.6145842)
(-229049 0 2.6147209)
(-229053.5 -7.7145363e-14 2.6148576)
(-229058.5 0 2.6149944)
(-229063.5 0 2.6151311)
(-229068 0 2.6152679)
(-229073 7.4624246e-14 2.6154047)
(-229078 -7.3993767e-14 2.6155416)
(-229082.5 7.3363211e-14 2.6156784)
(-229087.5 7.2732575e-14 2.6158152)
(-229092.5 0 2.6159521)
(-229097.5 7.1471063e-14 2.6160889)
(-229102 -7.0840187e-14 2.6162258)
(-229107 7.0209234e-14 2.6163627)
(-229112 6.9578199e-14 2.6164996)
(-229116.5 0 2.6166366)
(-229121.5 0 2.6167735)
(-229126.5 0 2.6169105)
(-229131 6.7053268e-14 2.6170474)
(-229136 -6.6421839e-14 2.6171844)
(-229141 0 2.6173214)
(-229145.5 0 2.6174585)
(-229150.5 0 2.6175955)
(-229155.5 6.3895318e-14 2.6177325)
(-229160.5 -6.3263488e-14 2.6178696)
(-229165 0 2.6180067)
(-229170 0 2.094515)
(-229175 0 2.6182808)
(-229179.5 0 2.618418)
(-229184.5 -6.0103148e-14 2.6185551)
(-229189.5 0 2.0949538)
(-229194.5 5.8838454e-14 2.6188294)
(-229199.5 0 2.6189666)
(-229204 5.7573439e-14 2.6191037)
(-229208.5 5.6940815e-14 2.6192409)
(-229214 0 2.0955025)
(-229219 5.5675322e-14 2.6195154)
(-229223.5 0 2.6196526)
(-229228 5.4409511e-14 2.6197899)
(-229233 5.3776488e-14 2.6199272)
(-229238 0 2.6200645)
(-229243 -5.2510197e-14 2.0961614)
(-229248 0 2.6203391)
(-229252.5 5.1243589e-14 2.6204764)
(-229257.5 0 2.6206137)
(-229262.5 0 2.6207511)
(-229267 -4.9343075e-14 2.6208885)
(-229272 0 2.0968207)
(-229277 4.8075668e-14 2.6211633)
(-229282 0 2.0970406)
(-229287 0 2.6214381)
(-229291.5 -4.6173956e-14 2.6215756)
(-229296.5 0 2.621713)
(-229301 0 2.6218505)
(-229306 0 2.0975904)
(-229311.5 0 2.6221255)
(-229316 4.3002835e-14 2.622263)
(-229320.5 0 2.6224005)
(-229325.5 0 2.6225381)
(-229330.5 4.1099204e-14 2.6226757)
(-229335.5 0 2.6228132)
(-229340.5 3.9829715e-14 2.6229508)
(-229345 0 2.6230884)
(-229350 0 2.0985808)
(-229355 3.792488e-14 2.6233637)
(-229359.5 0 2.6235013)
(-229365 0 2.0989112)
(-229370 0 2.6237767)
(-229374 0 2.6239144)
(-229379 0 2.0992416)
(-229384.5 0 2.6241898)
(-229389 0 2.6243275)
(-229394 0 2.6244653)
(-229399 0 2.624603)
(-229403.5 0 2.6247408)
(-229408.5 0 2.6248786)
(-229413.5 0 2.6250164)
(-229418.5 0 2.6251542)
(-229423 0 2.6252921)
(-229427.9 0 2.6254299)
(-229433.15 -2.7753566e-14 2.5205451)
(-229437.9 2.7117176e-14 2.5731915)
(-229442.75 0 2.5733267)
(-229447.65 0 2.5734618)
(-229452.5 0 2.573597)
(-229457.4 -2.4570811e-14 2.521207)
(-229462.3 2.3934019e-14 2.5738674)
(-229467.2 0 2.5214719)
(-229472.1 2.2660193e-14 2.5741378)
(-229476.95 2.2023159e-14 2.574273)
(-229481.85 -2.1386045e-14 2.5744083)
(-229486.75 0 2.5220018)
(-229491.65 0 2.5221344)
(-229496.55 1.9474218e-14 2.5222669)
(-229501.45 0 2.5223994)
(-229506.35 0 2.522532)
(-229511.25 0 2.5226646)
(-229516.15 0 2.5227972)
(-229521.05 1.6286229e-14 2.5754908)
(-229525.95 0 2.5756262)
(-229530.85 0 2.5757616)
(-229535.75 0 2.575897)
(-229540.65 -1.3734385e-14 2.5760324)
(-229545.5 0 2.5761678)
(-229550.4 0 2.5237257)
(-229555.3 0 2.5238583)
(-229560.1 1.1181249e-14 2.5239911)
(-229564.95 -1.0542764e-14 2.4715379)
(-229569.75 0 2.4716678)
(-229574.5 0 2.4192064)
(-229579.2 0 2.4193336)
(-229583.75 7.988017e-15 2.3668639)
(-229588.2 -7.3491301e-15 2.2617889)
(-229592.55 6.7101637e-15 2.1567029)
(-229596.65 6.0711181e-15 2.0516058)
(-229600.45 0 1.8938896)
(-229603.95 0 1.683546)
(-229607.1 0 1.3153395)
(-229609.3 3.5141601e-15 0.89447791)
(-229606.94 -2.874736e-15 0.9471441)
(-229607.7 0 0.25258505)
(-229686.43 0 -11.76161)
(-229657.87 0 -21.950899)
(-228230.88 3.1631571e-16 77.882161)
(-214114.94 6.0329756e-13 -43731.093)
(-404123.44 -6.0221921e-13 -35482.661)
(-356848.42 0 -36379.547)
(-322427.94 6.0040533e-13 -33290.826)
(-302352.5 0 -28491.411)
(-285847.09 0 -23821.551)
(-271901.71 0 -19546.353)
(-260701.38 5.9756138e-13 -15740.903)
(-251901.09 0 -12490.308)
(-245055.85 0 -9784.6477)
(-239780.66 0 -7583.9816)
(-235755.5 5.9511988e-13 -5818.3455)
(-232720.38 5.9453587e-13 -4422.7642)
(-230440.29 0 -3332.2493)
(-228750.21 0 -2491.8066)
(-227510.16 0 -1841.4271)
(-226605.11 0 -1346.1105)
(-225960.08 5.9167372e-13 -975.85387)
(-225510.06 5.911066e-13 -690.63884)
(-225200.04 0 -480.46846)
(-224990.03 0 -325.33347)
(-224860.02 0 -210.22599)
(-224785.01 5.888421e-13 -125.14078)
(-224745.01 0 -70.082347)
(-224735 0 -30.036795)
(-224750 0 0)
(-224765 0 15.019901)
(-224790 0 30.041307)
(-224825 0 40.057081)
(-224855 5.8487825e-13 40.059087)
(-224885 0 40.061093)
(-224915 0 40.063099)
(-224950 0 40.065106)
(-224975 0 40.067112)
(-225000 5.8204261e-13 30.051839)
(-225025 0 35.062235)
(-225045 0 30.05485)
(-225065 0 25.046963)
(-225080 0 20.038574)
(-225095 5.7920391e-13 20.039578)
(-225110 0 20.040582)
(-225125 0 15.03119)
(-225135 0 15.031943)
(-225150 0 20.043595)
(-225160 0 15.033449)
(-225165 0 15.034203)
(-225175 0 15.034956)
(-225180 0 15.03571)
(-225190 0 10.024309)
(-225200 0 10.024811)
(-225200 0 10.025314)
(-225205 5.7238183e-13 10.025816)
(-225215 0 10.026319)
(-225220 0 10.026822)
(-225225 0 10.027324)
(-225235 0 10.027827)
(-225240 5.6953606e-13 5.014165)
(-225240 0 5.0144165)
(-225245 0 5.0146679)
(-225250 0 5.0149194)
(-225255 0 10.030342)
(-225260 5.6668857e-13 10.030845)
(-225265 0 10.031348)
(-225270 0 10.031851)
(-225275 0 10.032354)
(-225280 0 10.032858)
(-225285 0 10.033361)
(-225290 0 5.0169322)
(-225290 5.6269911e-13 5.0171839)
(-225295 0 5.0174356)
(-225305 0 5.0176874)
(-225310 0 5.0179391)
(-225310 0 5.0181909)
(-225315 5.5984744e-13 10.036886)
(-225320 0 5.0186946)
(-225325 0 10.037893)
(-225330 0 5.0191984)
(-225330 0 5.0194504)
(-225335 5.5699401e-13 5.0197023)
(-225345 0 5.0199543)
(-225350 0 5.0202063)
(-225350 0 5.0204584)
(-225355 0 10.041421)
(-225360 5.5413887e-13 5.0209625)
(-225365 0 10.042429)
(-225370 0 5.0214668)
(-225375 0 10.043438)
(-225380 0 5.0219711)
(-225380 0 5.0222233)
(-225385 0 10.044951)
(-225390 5.5013878e-13 10.045456)
(-225395 0 5.0229801)
(-225405 0 10.046465)
(-225405 0 5.0234848)
(-225405 0 10.047474)
(-225415 5.4727947e-13 5.0239895)
(-225420 0 5.024242)
(-225425 0 10.048989)
(-225425 0 5.0247469)
(-225430 0 5.0249994)
(-225440 5.4441843e-13 5.0252519)
(-225440 0 5.0255044)
(-225445 0 5.025757)
(-225450 0 5.0260096)
(-225450 0 5.0262622)
(-225460 0 5.0265149)
(-225465 0 5.0267675)
(-225465 0 10.05404)
(-225470 0 10.054546)
(-225475 0 5.0275257)
(-225485 0 10.055557)
(-225485 0 5.0280313)
(-225490 5.375449e-13 10.056568)
(-225495 0 5.0285369)