/*--------------------------------*- C++ -*----------------------------------*\
  =========                 |
  \\      /  F ield         | OpenFOAM: The Open Source CFD Toolbox
   \\    /   O peration     | Website:  https://openfoam.org
    \\  /    A nd           | Version:  6
     \\/     M anipulation  |
\*---------------------------------------------------------------------------*/
FoamFile
{
    version     2.0;
    format      ascii;
    class       volScalarField;
    location    "3315";
    object      p;
}
// * * * * * * * * * * * * * * * * * * * * * * * * * * * * * * * * * * * * * //

dimensions      [0 2 -2 0 0 0 0];

internalField   nonuniform List<scalar> 
4000
(
4661554.5
4644922.9
4508136.5
4582119.9
4486793.5
4524221.4
4458937.8
4468816.8
4422575.5
4417364.7
4381946.8
4368656.4
4339130.1
4321498.2
4295138.7
4275169
4250506.1
4229275.3
4205519.2
4183605.9
4160332.4
4138047.5
4115028.6
4092539.2
4069652.5
4047048.3
4024228
4001557.3
3978767.9
3956056.6
3933279.1
3910541.2
3887765.3
3865008.4
3842228.5
3819456.5
3796669.8
3773884.9
3751089.7
3728293.1
3705488.5
3682680.8
3659866.4
3637047.9
3614223.3
3591394.2
3568559.5
3545719.8
3522874.7
3500024.6
3477169.1
3454308.5
3431442.6
3408571.6
3385695.3
3362813.7
3339927
3317035
3294137.7
3271235.3
3248327.6
3225414.6
3202496.4
3179572.9
3156644.2
3133710.2
3110771
3087826.5
3064876.8
3041921.7
3018961.4
2995995.9
2973025
2950048.9
2927067.5
2904080.8
2881088.8
2858091.6
2835089
2812081.1
2789068
2766049.5
2743025.7
2719996.7
2696962.3
2673922.6
2650877.5
2627827.2
2604771.5
2581710.5
2558644.2
2535572.6
2512495.6
2489413.3
2466325.6
2443232.6
2420134.3
2397030.6
2373921.5
2350807.1
2327687.3
2304562.2
2281431.7
2258295.9
2235154.7
2212008.1
2188856.1
2165698.7
2142536
2119367.9
2096194.4
2073015.5
2049831.2
2026641.5
2003446.4
1980246
1957040.1
1933828.8
1910612.1
1887389.9
1864162.4
1840929.4
1817691.1
1794447.3
1771198
1747943.3
1724683.2
1701417.7
1678146.7
1654870.3
1631588.4
1608301.1
1585008.3
1561710.1
1538406.4
1515097.3
1491782.6
1468462.6
1445137
1421806
1398469.5
1375127.5
1351780
1328427.1
1305068.6
1281704.7
1258335.3
1234960.3
1211579.9
1188194
1164802.5
1141405.6
1118003.1
1094595.1
1071181.6
1047762.6
1024338.1
1000908
977472.37
954031.23
930584.55
907132.32
883674.56
860211.24
836742.38
813267.96
789787.99
766302.45
742811.36
719314.69
695812.47
672304.65
648791.29
625272.32
601747.8
578217.65
554681.98
531140.63
507593.81
484041.22
460483.26
436919.4
413350.33
389775.11
366195.01
342608.31
319017.32
295418.91
271817.3
248206.79
224595.07
200971.75
177350.83
153713.41
130085.05
106431.01
82798.838
59122.541
35497.306
11780.573
4658751.3
4644165.5
4508172.3
4581705.8
4487117.9
4523977.2
4459138.1
4468675.4
4422683.4
4417286.7
4382004.6
4368614.3
4339161.1
4321475.5
4295155.4
4275156.8
4250515.1
4229268.8
4205524
4183602.5
4160335
4138045.7
4115030.1
4092538.3
4069653.3
4047047.8
4024228.4
4001557.1
3978768.1
3956056.5
3933279.2
3910541.2
3887765.4
3865008.4
3842228.6
3819456.6
3796669.9
3773885
3751089.8
3728293.2
3705488.6
3682680.8
3659866.4
3637047.9
3614223.4
3591394.3
3568559.5
3545719.9
3522874.8
3500024.6
3477169.2
3454308.6
3431442.7
3408571.6
3385695.3
3362813.8
3339927
3317035
3294137.8
3271235.3
3248327.6
3225414.6
3202496.4
3179573
3156644.3
3133710.3
3110771.1
3087826.6
3064876.8
3041921.8
3018961.5
2995995.9
2973025.1
2950049
2927067.6
2904080.9
2881088.9
2858091.6
2835089
2812081.2
2789068
2766049.6
2743025.8
2719996.7
2696962.3
2673922.6
2650877.6
2627827.3
2604771.6
2581710.6
2558644.3
2535572.6
2512495.7
2489413.3
2466325.7
2443232.7
2420134.3
2397030.6
2373921.6
2350807.2
2327687.4
2304562.3
2281431.8
2258295.9
2235154.7
2212008.1
2188856.1
2165698.8
2142536.1
2119367.9
2096194.4
2073015.5
2049831.3
2026641.6
2003446.5
1980246
1957040.1
1933828.8
1910612.1
1887390
1864162.5
1840929.5
1817691.1
1794447.3
1771198.1
1747943.4
1724683.3
1701417.8
1678146.8
1654870.4
1631588.5
1608301.2
1585008.4
1561710.2
1538406.5
1515097.3
1491782.7
1468462.6
1445137.1
1421806
1398469.5
1375127.5
1351780.1
1328427.1
1305068.7
1281704.7
1258335.3
1234960.4
1211580
1188194
1164802.6
1141405.6
1118003.2
1094595.2
1071181.7
1047762.7
1024338.1
1000908
977472.43
954031.28
930584.61
907132.38
883674.62
860211.3
836742.44
813268.02
789788.04
766302.51
742811.41
719314.75
695812.52
672304.71
648791.35
625272.37
601747.86
578217.71
554682.04
531140.69
507593.86
484041.28
460483.32
436919.45
413350.39
389775.17
366195.06
342608.37
319017.37
295418.97
271817.35
248206.86
224595.11
200971.83
177350.87
153713.5
130085.06
106431.13
82798.793
59122.748
35497.058
11781.022
4653663.4
4643280.9
4507569.1
4581646.2
4487175.2
4523946.7
4459193.3
4468646.3
4422711.5
4417268
4382019.1
4368603.9
4339168.9
4321469.9
4295159.6
4275153.9
4250517.4
4229267.3
4205525.3
4183601.7
4160335.7
4138045.3
4115030.5
4092538.1
4069653.6
4047047.8
4024228.6
4001557.1
3978768.3
3956056.6
3933279.4
3910541.3
3887765.5
3865008.5
3842228.7
3819456.7
3796670
3773885.1
3751089.9
3728293.2
3705488.7
3682680.9
3659866.5
3637048
3614223.5
3591394.4
3568559.6
3545720
3522874.9
3500024.7
3477169.3
3454308.7
3431442.8
3408571.7
3385695.4
3362813.9
3339927.1
3317035.1
3294137.9
3271235.4
3248327.7
3225414.7
3202496.5
3179573.1
3156644.4
3133710.4
3110771.2
3087826.7
3064876.9
3041921.9
3018961.6
2995996
2973025.2
2950049.1
2927067.7
2904081
2881089
2858091.7
2835089.1
2812081.3
2789068.1
2766049.7
2743025.9
2719996.8
2696962.4
2673922.7
2650877.7
2627827.4
2604771.7
2581710.7
2558644.4
2535572.7
2512495.8
2489413.4
2466325.8
2443232.8
2420134.4
2397030.7
2373921.7
2350807.3
2327687.5
2304562.4
2281431.9
2258296
2235154.8
2212008.2
2188856.2
2165698.9
2142536.2
2119368
2096194.5
2073015.6
2049831.4
2026641.7
2003446.6
1980246.1
1957040.2
1933828.9
1910612.2
1887390.1
1864162.6
1840929.6
1817691.2
1794447.4
1771198.2
1747943.5
1724683.4
1701417.9
1678146.9
1654870.5
1631588.6
1608301.3
1585008.5
1561710.3
1538406.6
1515097.4
1491782.8
1468462.7
1445137.2
1421806.1
1398469.6
1375127.6
1351780.2
1328427.2
1305068.8
1281704.8
1258335.4
1234960.5
1211580.1
1188194.1
1164802.7
1141405.7
1118003.3
1094595.3
1071181.8
1047762.8
1024338.2
1000908.1
977472.53
954031.38
930584.7
907132.48
883674.71
860211.4
836742.54
813268.11
789788.14
766302.61
742811.51
719314.85
695812.62
672304.81
648791.44
625272.47
601747.96
578217.81
554682.14
531140.79
507593.96
484041.38
460483.42
436919.55
413350.48
389775.27
366195.16
342608.47
319017.47
295419.07
271817.44
248206.96
224595.2
200971.93
177350.96
153713.61
130085.14
106431.25
82798.853
59122.904
35496.962
11781.323
4645907.4
4642051.2
4506522.3
4581703.6
4487151.3
4523987.9
4459211.8
4468650.3
4422718.5
4417265.7
4382022.1
4368602.1
4339170.5
4321469
4295160.6
4275153.5
4250518
4229267.1
4205525.7
4183601.7
4160336
4138045.4
4115030.7
4092538.2
4069653.8
4047047.9
4024228.8
4001557.2
3978768.4
3956056.7
3933279.5
3910541.4
3887765.7
3865008.6
3842228.9
3819456.8
3796670.1
3773885.2
3751090
3728293.4
3705488.8
3682681.1
3659866.7
3637048.2
3614223.6
3591394.5
3568559.8
3545720.1
3522875
3500024.9
3477169.4
3454308.8
3431442.9
3408571.9
3385695.6
3362814
3339927.3
3317035.3
3294138
3271235.6
3248327.9
3225414.9
3202496.7
3179573.2
3156644.5
3133710.5
3110771.3
3087826.8
3064877.1
3041922
3018961.8
2995996.2
2973025.3
2950049.2
2927067.8
2904081.1
2881089.1
2858091.9
2835089.3
2812081.4
2789068.3
2766049.8
2743026
2719997
2696962.6
2673922.9
2650877.8
2627827.5
2604771.8
2581710.9
2558644.5
2535572.9
2512495.9
2489413.6
2466325.9
2443232.9
2420134.6
2397030.9
2373921.8
2350807.4
2327687.6
2304562.5
2281432
2258296.2
2235155
2212008.4
2188856.4
2165699
2142536.3
2119368.2
2096194.7
2073015.8
2049831.5
2026641.8
2003446.7
1980246.3
1957040.4
1933829.1
1910612.4
1887390.2
1864162.7
1840929.7
1817691.4
1794447.6
1771198.3
1747943.7
1724683.6
1701418
1678147
1654870.6
1631588.7
1608301.4
1585008.6
1561710.4
1538406.7
1515097.6
1491783
1468462.9
1445137.3
1421806.3
1398469.8
1375127.8
1351780.3
1328427.4
1305068.9
1281705
1258335.6
1234960.6
1211580.2
1188194.3
1164802.8
1141405.9
1118003.4
1094595.4
1071181.9
1047762.9
1024338.4
1000908.3
977472.68
954031.53
930584.85
907132.63
883674.86
860211.55
836742.69
813268.26
789788.29
766302.76
742811.66
719315
695812.77
672304.96
648791.6
625272.62
601748.11
578217.96
554682.29
531140.94
507594.11
484041.53
460483.57
436919.7
413350.63
389775.42
366195.31
342608.62
319017.62
295419.22
271817.59
248207.11
224595.35
200972.08
177351.11
153713.76
130085.29
106431.41
82798.976
59123.095
35496.894
11781.673
4635438.5
4640416.9
4505152.6
4581773.2
4487132
4524036.2
4459242
4468651.7
4422730.7
4417260.6
4382027.5
4368598.6
4339173.4
4321467.2
4295162.2
4275152.6
4250519
4229266.7
4205526.3
4183601.6
4160336.4
4138045.4
4115031
4092538.3
4069654
4047048.1
4024229
4001557.4
3978768.7
3956056.9
3933279.7
3910541.6
3887765.9
3865008.8
3842229.1
3819457
3796670.3
3773885.4
3751090.2
3728293.6
3705489
3682681.3
3659866.9
3637048.4
3614223.8
3591394.7
3568560
3545720.3
3522875.2
3500025.1
3477169.6
3454309
3431443.1
3408572.1
3385695.8
3362814.2
3339927.5
3317035.5
3294138.2
3271235.8
3248328.1
3225415.1
3202496.9
3179573.4
3156644.7
3133710.7
3110771.5
3087827
3064877.3
3041922.2
3018962
2995996.4
2973025.5
2950049.4
2927068
2904081.3
2881089.3
2858092.1
2835089.5
2812081.6
2789068.5
2766050
2743026.2
2719997.2
2696962.8
2673923.1
2650878
2627827.7
2604772
2581711.1
2558644.7
2535573.1
2512496.1
2489413.8
2466326.1
2443233.1
2420134.8
2397031.1
2373922
2350807.6
2327687.9
2304562.7
2281432.2
2258296.4
2235155.2
2212008.6
2188856.6
2165699.2
2142536.5
2119368.4
2096194.9
2073016
2049831.7
2026642
2003446.9
1980246.5
1957040.6
1933829.3
1910612.6
1887390.4
1864162.9
1840929.9
1817691.6
1794447.8
1771198.5
1747943.9
1724683.8
1701418.2
1678147.2
1654870.8
1631588.9
1608301.6
1585008.8
1561710.6
1538406.9
1515097.8
1491783.2
1468463.1
1445137.5
1421806.5
1398470
1375128
1351780.5
1328427.6
1305069.1
1281705.2
1258335.8
1234960.8
1211580.4
1188194.5
1164803
1141406.1
1118003.6
1094595.6
1071182.1
1047763.1
1024338.6
1000908.5
977472.88
954031.74
930585.06
907132.83
883675.07
860211.75
836742.89
813268.47
789788.5
766302.96
742811.87
719315.2
695812.97
672305.16
648791.8
625272.83
601748.31
578218.16
554682.49
531141.14
507594.32
484041.73
460483.77
436919.91
413350.84
389775.62
366195.51
342608.82
319017.82
295419.43
271817.8
248207.32
224595.55
200972.28
177351.31
153713.97
130085.49
106431.63
82799.139
59123.355
35496.801
11782.154
4622226.5
4638403.1
4503486.7
4581856.5
4487122.9
4524089.7
4459285.3
4468649.5
4422748.7
4417252.1
4382035.8
4368593.2
4339177.8
4321464.3
4295164.7
4275151.2
4250520.4
4229266.1
4205527.2
4183601.3
4160337
4138045.4
4115031.5
4092538.4
4069654.4
4047048.3
4024229.3
4001557.6
3978768.9
3956057.1
3933280
3910541.9
3887766.1
3865009.1
3842229.3
3819457.3
3796670.6
3773885.7
3751090.5
3728293.8
3705489.3
3682681.5
3659867.1
3637048.6
3614224.1
3591395
3568560.2
3545720.6
3522875.5
3500025.3
3477169.9
3454309.3
3431443.4
3408572.3
3385696
3362814.5
3339927.7
3317035.7
3294138.5
3271236
3248328.3
3225415.3
3202497.1
3179573.7
3156645
3133711
3110771.8
3087827.3
3064877.5
3041922.5
3018962.2
2995996.6
2973025.8
2950049.7
2927068.3
2904081.6
2881089.6
2858092.3
2835089.7
2812081.9
2789068.7
2766050.3
2743026.5
2719997.4
2696963
2673923.3
2650878.3
2627828
2604772.3
2581711.3
2558645
2535573.3
2512496.4
2489414
2466326.4
2443233.4
2420135
2397031.3
2373922.3
2350807.9
2327688.1
2304563
2281432.5
2258296.6
2235155.4
2212008.8
2188856.8
2165699.5
2142536.8
2119368.6
2096195.1
2073016.2
2049832
2026642.3
2003447.2
1980246.7
1957040.8
1933829.5
1910612.8
1887390.7
1864163.2
1840930.2
1817691.8
1794448
1771198.8
1747944.1
1724684
1701418.5
1678147.5
1654871.1
1631589.2
1608301.9
1585009.1
1561710.9
1538407.2
1515098
1491783.4
1468463.3
1445137.8
1421806.7
1398470.2
1375128.3
1351780.8
1328427.8
1305069.4
1281705.5
1258336
1234961.1
1211580.7
1188194.7
1164803.3
1141406.3
1118003.9
1094595.9
1071182.4
1047763.4
1024338.8
1000908.7
977473.14
954031.99
930585.31
907133.08
883675.32
860212
836743.14
813268.72
789788.75
766303.21
742812.12
719315.45
695813.23
672305.42
648792.05
625273.08
601748.56
578218.41
554682.74
531141.39
507594.57
484041.99
460484.02
436920.16
413351.09
389775.87
366195.77
342609.07
319018.07
295419.68
271818.05
248207.57
224595.81
200972.54
177351.56
153714.23
130085.73
106431.9
82799.342
59123.684
35496.683
11782.766
4606196.1
4636045.4
4501539.8
4581969.2
4487120.3
4524154.5
4459337.5
4468646.6
4422770.1
4417241.8
4382045.7
4368586.7
4339183.2
4321460.9
4295167.7
4275149.5
4250522.2
4229265.3
4205528.3
4183601
4160337.8
4138045.4
4115032
4092538.6
4069654.8
4047048.5
4024229.7
4001557.9
3978769.3
3956057.4
3933280.3
3910542.2
3887766.5
3865009.4
3842229.6
3819457.6
3796670.9
3773886
3751090.8
3728294.1
3705489.6
3682681.8
3659867.4
3637048.9
3614224.4
3591395.3
3568560.5
3545720.9
3522875.8
3500025.6
3477170.2
3454309.6
3431443.7
3408572.6
3385696.3
3362814.8
3339928
3317036
3294138.8
3271236.3
3248328.6
3225415.7
3202497.4
3179574
3156645.3
3133711.3
3110772.1
3087827.6
3064877.8
3041922.8
3018962.5
2995996.9
2973026.1
2950050
2927068.6
2904081.9
2881089.9
2858092.6
2835090.1
2812082.2
2789069
2766050.6
2743026.8
2719997.7
2696963.3
2673923.6
2650878.6
2627828.3
2604772.6
2581711.6
2558645.3
2535573.6
2512496.7
2489414.3
2466326.7
2443233.7
2420135.3
2397031.6
2373922.6
2350808.2
2327688.4
2304563.3
2281432.8
2258296.9
2235155.7
2212009.1
2188857.1
2165699.8
2142537.1
2119368.9
2096195.4
2073016.5
2049832.3
2026642.6
2003447.5
1980247
1957041.1
1933829.8
1910613.1
1887391
1864163.5
1840930.5
1817692.1
1794448.3
1771199.1
1747944.4
1724684.3
1701418.8
1678147.8
1654871.4
1631589.5
1608302.2
1585009.4
1561711.2
1538407.5
1515098.3
1491783.7
1468463.6
1445138.1
1421807
1398470.5
1375128.6
1351781.1
1328428.1
1305069.7
1281705.8
1258336.3
1234961.4
1211581
1188195
1164803.6
1141406.6
1118004.2
1094596.2
1071182.7
1047763.7
1024339.1
1000909
977473.44
954032.29
930585.61
907133.39
883675.62
860212.31
836743.45
813269.02
789789.05
766303.52
742812.42
719315.76
695813.53
672305.72
648792.36
625273.38
601748.87
578218.72
554683.05
531141.7
507594.87
484042.29
460484.33
436920.47
413351.39
389776.18
366196.07
342609.38
319018.38
295419.99
271818.35
248207.88
224596.11
200972.85
177351.86
153714.54
130086.02
106432.23
82799.588
59124.078
35496.548
11783.502
4587241.7
4633379.7
4499338.5
4582120.5
4487126.7
4524232.1
4459397.6
4468643.9
4422794.3
4417230.4
4382056.8
4368579.4
4339189.1
4321457.1
4295171.1
4275147.6
4250524.2
4229264.5
4205529.6
4183600.8
4160338.6
4138045.4
4115032.6
4092538.7
4069655.3
4047048.7
4024230.1
4001558.2
3978769.7
3956057.7
3933280.7
3910542.5
3887766.8
3865009.7
3842230
3819457.9
3796671.3
3773886.3
3751091.1
3728294.5
3705489.9
3682682.2
3659867.8
3637049.3
3614224.8
3591395.6
3568560.9
3545721.2
3522876.1
3500026
3477170.5
3454309.9
3431444
3408573
3385696.7
3362815.1
3339928.4
3317036.4
3294139.2
3271236.7
3248329
3225416
3202497.8
3179574.3
3156645.6
3133711.7
3110772.4
3087827.9
3064878.2
3041923.2
3018962.9
2995997.3
2973026.4
2950050.3
2927068.9
2904082.2
2881090.2
2858093
2835090.4
2812082.5
2789069.4
2766050.9
2743027.1
2719998.1
2696963.7
2673924
2650879
2627828.6
2604773
2581712
2558645.6
2535574
2512497
2489414.7
2466327
2443234
2420135.7
2397032
2373922.9
2350808.5
2327688.8
2304563.6
2281433.1
2258297.3
2235156.1
2212009.5
2188857.5
2165700.1
2142537.4
2119369.3
2096195.8
2073016.9
2049832.6
2026642.9
2003447.9
1980247.4
1957041.5
1933830.2
1910613.5
1887391.4
1864163.8
1840930.9
1817692.5
1794448.7
1771199.4
1747944.8
1724684.7
1701419.1
1678148.1
1654871.7
1631589.8
1608302.5
1585009.8
1561711.5
1538407.8
1515098.7
1491784.1
1468464
1445138.4
1421807.4
1398470.9
1375128.9
1351781.4
1328428.5
1305070
1281706.1
1258336.7
1234961.8
1211581.3
1188195.4
1164804
1141407
1118004.5
1094596.6
1071183.1
1047764
1024339.5
1000909.4
977473.8
954032.65
930585.97
907133.74
883675.98
860212.66
836743.8
813269.38
789789.41
766303.87
742812.78
719316.11
695813.89
672306.08
648792.71
625273.74
601749.22
578219.07
554683.4
531142.05
507595.23
484042.65
460484.68
436920.82
413351.75
389776.54
366196.43
342609.74
319018.73
295420.34
271818.71
248208.24
224596.46
200973.21
177352.21
153714.91
130086.37
106432.61
82799.878
59124.536
35496.403
11784.359
4565235.3
4630447.1
4496918.2
4582318
4487147.4
4524322.6
4459465.9
4468641.1
4422821.2
4417217.6
4382069.1
4368571.2
4339195.8
4321452.8
4295174.9
4275145.5
4250526.4
4229263.5
4205530.9
4183600.4
4160339.5
4138045.4
4115033.3
4092538.9
4069655.9
4047049
4024230.6
4001558.5
3978770.1
3956058.1
3933281.1
3910542.9
3887767.2
3865010.1
3842230.4
3819458.3
3796671.7
3773886.7
3751091.6
3728294.9
3705490.4
3682682.6
3659868.2
3637049.7
3614225.2
3591396
3568561.3
3545721.6
3522876.5
3500026.4
3477170.9
3454310.3
3431444.5
3408573.4
3385697.1
3362815.6
3339928.8
3317036.8
3294139.6
3271237.1
3248329.4
3225416.4
3202498.2
3179574.7
3156646
3133712.1
3110772.8
3087828.3
3064878.6
3041923.6
3018963.3
2995997.7
2973026.9
2950050.7
2927069.3
2904082.6
2881090.7
2858093.4
2835090.8
2812082.9
2789069.8
2766051.3
2743027.6
2719998.5
2696964.1
2673924.4
2650879.4
2627829
2604773.4
2581712.4
2558646.1
2535574.4
2512497.4
2489415.1
2466327.4
2443234.4
2420136.1
2397032.4
2373923.3
2350808.9
2327689.2
2304564
2281433.6
2258297.7
2235156.5
2212009.9
2188857.9
2165700.6
2142537.8
2119369.7
2096196.2
2073017.3
2049833
2026643.3
2003448.3
1980247.8
1957041.9
1933830.6
1910613.9
1887391.8
1864164.2
1840931.3
1817692.9
1794449.1
1771199.8
1747945.2
1724685.1
1701419.5
1678148.6
1654872.1
1631590.3
1608302.9
1585010.2
1561711.9
1538408.2
1515099.1
1491784.5
1468464.4
1445138.8
1421807.8
1398471.3
1375129.3
1351781.9
1328428.9
1305070.5
1281706.5
1258337.1
1234962.2
1211581.7
1188195.8
1164804.4
1141407.4
1118004.9
1094597
1071183.5
1047764.4
1024339.9
1000909.8
977474.2
954033.06
930586.38
907134.15
883676.39
860213.07
836744.21
813269.79
789789.82
766304.28
742813.19
719316.52
695814.3
672306.48
648793.12
625274.15
601749.63
578219.48
554683.81
531142.46
507595.64
484043.05
460485.09
436921.23
413352.16
389776.94
366196.83
342610.14
319019.14
295420.75
271819.11
248208.64
224596.87
200973.62
177352.61
153715.32
130086.76
106433.04
82800.211
59125.057
35496.251
11785.337
4540023.7
4627297.7
4494320.7
4582570
4487188.7
4524425.7
4459542.9
4468637.7
4422850.9
4417203.3
4382082.7
4368562.2
4339203.1
4321448.1
4295179.1
4275143.2
4250528.9
4229262.5
4205532.5
4183600.1
4160340.6
4138045.4
4115034.1
4092539.2
4069656.5
4047049.4
4024231.2
4001558.9
3978770.6
3956058.5
3933281.6
3910543.3
3887767.7
3865010.5
3842230.9
3819458.8
3796672.1
3773887.2
3751092
3728295.4
3705490.8
3682683.1
3659868.7
3637050.1
3614225.6
3591396.5
3568561.7
3545722.1
3522877
3500026.9
3477171.4
3454310.8
3431444.9
3408573.8
3385697.5
3362816
3339929.2
3317037.2
3294140
3271237.5
3248329.8
3225416.9
3202498.7
3179575.2
3156646.5
3133712.5
3110773.3
3087828.8
3064879
3041924
3018963.7
2995998.2
2973027.3
2950051.2
2927069.8
2904083.1
2881091.1
2858093.8
2835091.3
2812083.4
2789070.2
2766051.8
2743028
2719998.9
2696964.5
2673924.8
2650879.8
2627829.5
2604773.8
2581712.8
2558646.5
2535574.9
2512497.9
2489415.6
2466327.9
2443234.9
2420136.5
2397032.8
2373923.8
2350809.4
2327689.6
2304564.5
2281434
2258298.2
2235156.9
2212010.3
2188858.4
2165701
2142538.3
2119370.2
2096196.7
2073017.8
2049833.5
2026643.8
2003448.7
1980248.2
1957042.3
1933831
1910614.3
1887392.2
1864164.7
1840931.7
1817693.3
1794449.5
1771200.3
1747945.6
1724685.5
1701420
1678149
1654872.6
1631590.7
1608303.4
1585010.6
1561712.4
1538408.7
1515099.5
1491784.9
1468464.8
1445139.3
1421808.3
1398471.8
1375129.8
1351782.3
1328429.4
1305070.9
1281707
1258337.5
1234962.6
1211582.2
1188196.3
1164804.8
1141407.9
1118005.4
1094597.4
1071183.9
1047764.9
1024340.3
1000910.3
977474.66
954033.51
930586.83
907134.61
883676.84
860213.53
836744.67
813270.25
789790.27
766304.74
742813.65
719316.98
695814.75
672306.94
648793.58
625274.6
601750.09
578219.94
554684.27
531142.92
507596.09
484043.51
460485.55
436921.69
413352.61
389777.4
366197.29
342610.6
319019.59
295421.21
271819.57
248209.11
224597.32
200974.08
177353.06
153715.79
130087.2
106433.53
82800.59
59125.641
35496.097
11786.437
4511424.3
4623991.5
4491594.5
4582885.8
4487256.7
4524541.4
4459628.7
4468633.7
4422883.3
4417187.5
4382097.6
4368552.4
4339211.2
4321443
4295183.7
4275140.7
4250531.6
4229261.4
4205534.2
4183599.7
4160341.7
4138045.5
4115034.9
4092539.4
4069657.2
4047049.7
4024231.8
4001559.3
3978771.2
3956059
3933282.1
3910543.8
3887768.2
3865011
3842231.4
3819459.3
3796672.6
3773887.7
3751092.5
3728295.9
3705491.3
3682683.6
3659869.2
3637050.6
3614226.1
3591397
3568562.2
3545722.6
3522877.5
3500027.4
3477171.9
3454311.3
3431445.4
3408574.4
3385698
3362816.5
3339929.7
3317037.8
3294140.5
3271238.1
3248330.3
3225417.4
3202499.2
3179575.7
3156647
3133713
3110773.8
3087829.3
3064879.6
3041924.5
3018964.2
2995998.7
2973027.8
2950051.7
2927070.3
2904083.6
2881091.6
2858094.3
2835091.8
2812083.9
2789070.8
2766052.3
2743028.5
2719999.4
2696965.1
2673925.3
2650880.3
2627830
2604774.3
2581713.3
2558647
2535575.4
2512498.4
2489416.1
2466328.4
2443235.4
2420137.1
2397033.4
2373924.3
2350809.9
2327690.1
2304565
2281434.5
2258298.7
2235157.4
2212010.8
2188858.9
2165701.5
2142538.8
2119370.7
2096197.2
2073018.3
2049834
2026644.3
2003449.2
1980248.7
1957042.9
1933831.6
1910614.9
1887392.7
1864165.2
1840932.2
1817693.9
1794450
1771200.8
1747946.1
1724686
1701420.5
1678149.5
1654873.1
1631591.2
1608303.9
1585011.1
1561712.9
1538409.2
1515100.1
1491785.4
1468465.4
1445139.8
1421808.8
1398472.3
1375130.3
1351782.8
1328429.9
1305071.4
1281707.5
1258338.1
1234963.1
1211582.7
1188196.8
1164805.3
1141408.4
1118005.9
1094597.9
1071184.4
1047765.4
1024340.9
1000910.8
977475.17
954034.02
930587.34
907135.12
883677.35
860214.04
836745.17
813270.75
789790.78
766305.25
742814.15
719317.49
695815.26
672307.45
648794.09
625275.11
601750.6
578220.45
554684.78
531143.43
507596.6
484044.02
460486.06
436922.2
413353.12
389777.91
366197.8
342611.11
319020.1
295421.72
271820.08
248209.62
224597.83
200974.6
177353.57
153716.31
130087.7
106434.08
82801.016
59126.287
35495.947
11787.66
4479218.5
4620599.9
4488795.8
4583276
4487358.3
4524669.5
4459723.6
4468628.6
4422918.4
4417170.2
4382113.8
4368541.6
4339220
4321437.4
4295188.7
4275137.9
4250534.6
4229260.2
4205536
4183599.4
4160342.9
4138045.5
4115035.8
4092539.7
4069657.9
4047050.1
4024232.4
4001559.8
3978771.8
3956059.5
3933282.7
3910544.3
3887768.8
3865011.6
3842232
3819459.8
3796673.2
3773888.2
3751093.1
3728296.4
3705491.9
3682684.1
3659869.7
3637051.2
3614226.7
3591397.6
3568562.8
3545723.1
3522878.1
3500027.9
3477172.5
3454311.9
3431446
3408574.9
3385698.6
3362817.1
3339930.3
3317038.3
3294141.1
3271238.6
3248330.9
3225417.9
3202499.7
3179576.3
3156647.6
3133713.6
3110774.4
3087829.9
3064880.1
3041925.1
3018964.8
2995999.2
2973028.4
2950052.3
2927070.8
2904084.2
2881092.2
2858094.9
2835092.3
2812084.5
2789071.3
2766052.8
2743029.1
2720000
2696965.6
2673925.9
2650880.9
2627830.5
2604774.9
2581713.9
2558647.6
2535575.9
2512498.9
2489416.6
2466329
2443236
2420137.6
2397033.9
2373924.9
2350810.5
2327690.7
2304565.6
2281435.1
2258299.2
2235158
2212011.4
2188859.4
2165702.1
2142539.3
2119371.2
2096197.7
2073018.8
2049834.6
2026644.9
2003449.8
1980249.3
1957043.4
1933832.1
1910615.4
1887393.3
1864165.7
1840932.8
1817694.4
1794450.6
1771201.4
1747946.7
1724686.6
1701421.1
1678150.1
1654873.6
1631591.8
1608304.5
1585011.7
1561713.5
1538409.8
1515100.6
1491786
1468465.9
1445140.4
1421809.3
1398472.8
1375130.8
1351783.4
1328430.4
1305072
1281708
1258338.6
1234963.7
1211583.3
1188197.3
1164805.9
1141408.9
1118006.5
1094598.5
1071185
1047766
1024341.4
1000911.3
977475.73
954034.58
930587.9
907135.68
883677.91
860214.6
836745.74
813271.31
789791.34
766305.81
742814.71
719318.05
695815.82
672308.01
648794.65
625275.67
601751.16
578221.01
554685.34
531143.99
507597.16
484044.58
460486.62
436922.76
413353.68
389778.47
366198.36
342611.67
319020.66
295422.28
271820.64
248210.18
224598.38
200975.16
177354.12
153716.88
130088.24
106434.67
82801.488
59126.994
35495.808
11789.005
4443142.5
4617207.5
4485989
4583751.5
4487500.4
4524809.9
4459827.7
4468622.2
4422956.1
4417151.2
4382131.1
4368530
4339229.5
4321431.3
4295194.1
4275135
4250537.8
4229258.9
4205538
4183598.9
4160344.3
4138045.6
4115036.9
4092540
4069658.8
4047050.6
4024233.2
4001560.3
3978772.5
3956060.1
3933283.4
3910544.9
3887769.4
3865012.2
3842232.6
3819460.4
3796673.8
3773888.8
3751093.7
3728297
3705492.5
3682684.7
3659870.3
3637051.8
3614227.3
3591398.2
3568563.4
3545723.8
3522878.7
3500028.5
3477173.1
3454312.5
3431446.6
3408575.5
3385699.2
3362817.7
3339930.9
3317038.9
3294141.7
3271239.2
3248331.5
3225418.5
3202500.3
3179576.9
3156648.2
3133714.2
3110775
3087830.5
3064880.7
3041925.7
3018965.4
2995999.8
2973029
2950052.9
2927071.5
2904084.8
2881092.8
2858095.5
2835092.9
2812085.1
2789071.9
2766053.5
2743029.7
2720000.6
2696966.2
2673926.5
2650881.5
2627831.2
2604775.5
2581714.5
2558648.2
2535576.5
2512499.6
2489417.2
2466329.6
2443236.6
2420138.2
2397034.5
2373925.5
2350811.1
2327691.3
2304566.2
2281435.7
2258299.8
2235158.6
2212012
2188860
2165702.7
2142540
2119371.8
2096198.3
2073019.4
2049835.2
2026645.5
2003450.4
1980249.9
1957044
1933832.7
1910616
1887393.9
1864166.4
1840933.4
1817695
1794451.2
1771202
1747947.3
1724687.2
1701421.7
1678150.7
1654874.3
1631592.4
1608305.1
1585012.3
1561714.1
1538410.4
1515101.2
1491786.6
1468466.5
1445141
1421809.9
1398473.4
1375131.5
1351784
1328431
1305072.6
1281708.7
1258339.2
1234964.3
1211583.9
1188197.9
1164806.5
1141409.5
1118007.1
1094599.1
1071185.6
1047766.6
1024342
1000911.9
977476.34
954035.19
930588.51
907136.29
883678.52
860215.21
836746.35
813271.93
789791.95
766306.42
742815.33
719318.66
695816.43
672308.62
648795.26
625276.29
601751.77
578221.62
554685.95
531144.6
507597.78
484045.19
460487.23
436923.37
413354.29
389779.08
366198.97
342612.29
319021.27
295422.9
271821.25
248210.8
224598.99
200975.78
177354.72
153717.51
130088.83
106435.32
82802.009
59127.762
35495.688
11790.474
4402886.4
4613915
4483247.3
4584324.1
4487690.1
4524962.3
4459940.9
4468614.2
4422996.2
4417130.6
4382149.7
4368517.5
4339239.6
4321424.9
4295199.9
4275131.9
4250541.2
4229257.5
4205540.2
4183598.5
4160345.8
4138045.7
4115037.9
4092540.4
4069659.6
4047051.1
4024233.9
4001560.9
3978773.2
3956060.7
3933284.1
3910545.6
3887770.1
3865012.8
3842233.2
3819461.1
3796674.5
3773889.5
3751094.4
3728297.7
3705493.1
3682685.4
3659871
3637052.5
3614228
3591398.8
3568564.1
3545724.4
3522879.3
3500029.2
3477173.7
3454313.1
3431447.2
3408576.2
3385699.9
3362818.3
3339931.6
3317039.6
3294142.3
3271239.9
3248332.2
3225419.2
3202501
3179577.5
3156648.8
3133714.9
3110775.6
3087831.1
3064881.4
3041926.4
3018966.1
2996000.5
2973029.6
2950053.5
2927072.1
2904085.4
2881093.4
2858096.2
2835093.6
2812085.7
2789072.6
2766054.1
2743030.3
2720001.3
2696966.9
2673927.2
2650882.2
2627831.8
2604776.2
2581715.2
2558648.8
2535577.2
2512500.2
2489417.9
2466330.2
2443237.2
2420138.9
2397035.2
2373926.1
2350811.7
2327692
2304566.8
2281436.3
2258300.5
2235159.3
2212012.7
2188860.7
2165703.4
2142540.6
2119372.5
2096199
2073020.1
2049835.8
2026646.1
2003451.1
1980250.6
1957044.7
1933833.4
1910616.7
1887394.6
1864167
1840934.1
1817695.7
1794451.9
1771202.6
1747948
1724687.9
1701422.3
1678151.3
1654874.9
1631593.1
1608305.7
1585013
1561714.7
1538411
1515101.9
1491787.3
1468467.2
1445141.6
1421810.6
1398474.1
1375132.1
1351784.7
1328431.7
1305073.3
1281709.3
1258339.9
1234965
1211584.5
1188198.6
1164807.2
1141410.2
1118007.7
1094599.8
1071186.3
1047767.2
1024342.7
1000912.6
977477
954035.86
930589.18
907136.95
883679.19
860215.87
836747.01
813272.59
789792.62
766307.08
742815.99
719319.32
695817.1
672309.29
648795.92
625276.95
601752.43
578222.28
554686.61
531145.26
507598.44
484045.86
460487.89
436924.03
413354.96
389779.75
366199.63
342612.95
319021.93
295423.56
271821.91
248211.46
224599.65
200976.45
177355.38
153718.19
130089.48
106436.03
82802.58
59128.589
35495.594
11792.068
4358130.7
4610839.7
4480653.6
4585005.3
4487934.1
4525126.2
4460063
4468604.3
4423038.5
4417108.4
4382169.4
4368504.1
4339250.4
4321418
4295206.1
4275128.5
4250544.9
4229256.1
4205542.5
4183598.1
4160347.3
4138045.7
4115039.1
4092540.7
4069660.6
4047051.6
4024234.8
4001561.5
3978774
3956061.4
3933284.8
3910546.2
3887770.8
3865013.5
3842234
3819461.8
3796675.2
3773890.2
3751095.1
3728298.4
3705493.9
3682686.1
3659871.7
3637053.2
3614228.7
3591399.5
3568564.8
3545725.1
3522880
3500029.9
3477174.4
3454313.8
3431448
3408576.9
3385700.6
3362819.1
3339932.3
3317040.3
3294143.1
3271240.6
3248332.9
3225419.9
3202501.7
3179578.2
3156649.5
3133715.6
3110776.3
3087831.8
3064882.1
3041927.1
3018966.8
2996001.2
2973030.4
2950054.2
2927072.8
2904086.1
2881094.2
2858096.9
2835094.3
2812086.5
2789073.3
2766054.8
2743031.1
2720002
2696967.6
2673927.9
2650882.9
2627832.5
2604776.9
2581715.9
2558649.6
2535577.9
2512500.9
2489418.6
2466330.9
2443237.9
2420139.6
2397035.9
2373926.8
2350812.4
2327692.7
2304567.5
2281437.1
2258301.2
2235160
2212013.4
2188861.4
2165704.1
2142541.3
2119373.2
2096199.7
2073020.8
2049836.5
2026646.8
2003451.8
1980251.3
1957045.4
1933834.1
1910617.4
1887395.3
1864167.7
1840934.8
1817696.4
1794452.6
1771203.4
1747948.7
1724688.6
1701423
1678152.1
1654875.6
1631593.8
1608306.4
1585013.7
1561715.4
1538411.8
1515102.6
1491788
1468467.9
1445142.3
1421811.3
1398474.8
1375132.8
1351785.4
1328432.4
1305074
1281710
1258340.6
1234965.7
1211585.2
1188199.3
1164807.9
1141410.9
1118008.5
1094600.5
1071187
1047767.9
1024343.4
1000913.3
977477.72
954036.57
930589.89
907137.66
883679.9
860216.58
836747.72
813273.3
789793.33
766307.79
742816.7
719320.03
695817.81
672310
648796.63
625277.66
601753.15
578223
554687.33
531145.98
507599.15
484046.57
460488.6
436924.75