/*--------------------------------*- C++ -*----------------------------------*\
  =========                 |
  \\      /  F ield         | OpenFOAM: The Open Source CFD Toolbox
   \\    /   O peration     | Website:  https://openfoam.org
    \\  /    A nd           | Version:  6
     \\/     M anipulation  |
\*---------------------------------------------------------------------------*/
FoamFile
{
    version     2.0;
    format      ascii;
    class       volScalarField;
    location    "3670";
    object      p;
}
// * * * * * * * * * * * * * * * * * * * * * * * * * * * * * * * * * * * * * //

dimensions      [0 2 -2 0 0 0 0];

internalField   nonuniform List<scalar> 
80000
(
4788732.1
4769987.9
4750660.1
4732930.4
4716066.9
4699792.8
4684127.2
4669096.1
4654700.6
4640935.1
4627793
4615265.9
4603343.5
4592013.9
4581263.3
4571076.7
4561437.8
4552329.4
4543733.4
4535631.1
4528003.3
4520830.5
4514092.8
4507770.6
4501844.2
4496293.9
4491100.5
4486245.1
4481708.9
4477474.1
4473522.9
4469838.3
4466403.9
4463203.8
4460222.8
4457446.4
4454860.4
4452451.7
4450207.5
4448115.8
4446165
4444344.5
4442643.9
4441053.5
4439564.3
4438167.6
4436855.4
4435620.1
4434454.7
4433352.4
4432307
4431312.9
4430364.6
4429457
4428585.7
4427746.1
4426934.3
4426146.7
4425379.8
4424630.4
4423895.8
4423173.1
4422460.1
4421754.4
4421054.1
4420357.3
4419662.3
4418967.7
4418272
4417574.1
4416872.9
4416167.3
4415456.5
4414739.8
4414016.4
4413285.9
4412547.7
4411801.3
4411046.5
4410283
4409510.5
4408728.8
4407937.8
4407137.4
4406327.5
4405508.2
4404679.5
4403841.4
4402994
4402137.3
4401271.6
4400396.9
4399513.4
4398621.2
4397720.5
4396811.6
4395894.6
4394969.7
4394037.1
4393097
4392149.7
4391195.3
4390234.2
4389266.4
4388292.3
4387312
4386325.7
4385333.7
4384336.2
4383333.4
4382325.5
4381312.7
4380295.2
4379273.1
4378246.8
4377216.3
4376181.8
4375143.6
4374101.7
4373056.4
4372007.8
4370956
4369901.3
4368843.7
4367783.4
4366720.5
4365655.2
4364587.6
4363517.8
4362445.8
4361371.9
4360296.2
4359218.6
4358139.4
4357058.6
4355976.3
4354892.6
4353807.6
4352721.3
4351633.9
4350545.3
4349455.7
4348365.1
4347273.6
4346181.3
4345088.1
4343994.2
4342899.6
4341804.3
4340708.4
4339611.9
4338514.9
4337417.4
4336319.5
4335221.1
4334122.3
4333023.1
4331923.6
4330823.8
4329723.7
4328623.3
4327522.7
4326421.8
4325320.7
4324219.5
4323118
4322016.4
4320914.7
4319812.8
4318710.8
4317608.7
4316506.5
4315404.2
4314301.8
4313199.4
4312096.8
4310994.3
4309891.7
4308789
4307686.3
4306583.6
4305480.8
4304378
4303275.2
4302172.4
4301069.6
4299966.7
4298863.9
4297761
4296658.1
4295555.3
4294452.4
4293349.6
4292246.7
4291143.8
4290041
4288938.2
4287835.3
4286732.5
4285629.7
4284526.8
4283424
4282321.2
4281218.4
4280115.6
4279012.8
4277910.1
4276807.3
4275704.5
4274601.8
4273499
4272396.3
4271293.5
4270190.8
4269088.1
4267985.4
4266882.6
4265779.9
4264677.2
4263574.5
4262471.8
4261369
4260266.3
4259163.6
4258060.9
4256958.2
4255855.5
4254752.8
4253650
4252547.3
4251444.6
4250341.9
4249239.1
4248136.4
4247033.7
4245930.9
4244828.2
4243725.4
4242622.7
4241519.9
4240417.1
4239314.3
4238211.5
4237108.8
4236005.9
4234903.1
4233800.3
4232697.5
4231594.6
4230491.8
4229388.9
4228286.1
4227183.2
4226080.3
4224977.4
4223874.5
4222771.6
4221668.7
4220565.7
4219462.8
4218359.8
4217256.8
4216153.9
4215050.9
4213947.9
4212844.9
4211741.8
4210638.8
4209535.7
4208432.7
4207329.6
4206226.5
4205123.4
4204020.3
4202917.2
4201814
4200710.9
4199607.7
4198504.5
4197401.3
4196298.1
4195194.9
4194091.7
4192988.5
4191885.2
4190782
4189678.7
4188575.4
4187472.1
4186368.8
4185265.4
4184162.1
4183058.8
4181955.4
4180852
4179748.6
4178645.2
4177541.8
4176438.4
4175334.9
4174231.5
4173128
4172024.5
4170921
4169817.5
4168714
4167610.4
4166506.9
4165403.3
4164299.7
4163196.2
4162092.6
4160988.9
4159885.3
4158781.7
4157678
4156574.4
4155470.7
4154367
4153263.3
4152159.6
4151055.8
4149952.1
4148848.3
4147744.6
4146640.8
4145537
4144433.2
4143329.3
4142225.5
4141121.6
4140017.8
4138913.9
4137810
4136706.1
4135602.2
4134498.3
4133394.3
4132290.4
4131186.4
4130082.4
4128978.4
4127874.4
4126770.4
4125666.4
4124562.3
4123458.3
4122354.2
4121250.1
4120146
4119041.9
4117937.8
4116833.6
4115729.5
4114625.3
4113521.2
4112417
4111312.8
4110208.5
4109104.3
4108000.1
4106895.8
4105791.6
4104687.3
4103583
4102478.7
4101374.4
4100270
4099165.7
4098061.3
4096956.9
4095852.6
4094748.2
4093643.8
4092539.3
4091434.9
4090330.4
4089226
4088121.5
4087017
4085912.5
4084808
4083703.5
4082598.9
4081494.4
4080389.8
4079285.2
4078180.6
4077076
4075971.4
4074866.8
4073762.1
4072657.5
4071552.8
4070448.1
4069343.4
4068238.7
4067134
4066029.2
4064924.5
4063819.7
4062714.9
4061610.1
4060505.3
4059400.5
4058295.7
4057190.9
4056086
4054981.1
4053876.3
4052771.4
4051666.5
4050561.5
4049456.6
4048351.7
4047246.7
4046141.7
4045036.7
4043931.7
4042826.7
4041721.7
4040616.7
4039511.6
4038406.5
4037301.5
4036196.4
4035091.3
4033986.2
4032881
4031775.9
4030670.7
4029565.6
4028460.4
4027355.2
4026250
4025144.8
4024039.5
4022934.3
4021829
4020723.8
4019618.5
4018513.2
4017407.9
4016302.5
4015197.2
4014091.8
4012986.5
4011881.1
4010775.7
4009670.3
4008564.9
4007459.5
4006354
4005248.6
4004143.1
4003037.6
4001932.1
4000826.6
3999721.1
3998615.5
3997510
3996404.4
3995298.9
3994193.3
3993087.7
3991982.1
3990876.4
3989770.8
3988665.2
3987559.5
3986453.8
3985348.1
3984242.4
3983136.7
3982031
3980925.2
3979819.5
3978713.7
3977607.9
3976502.1
3975396.3
3974290.5
3973184.7
3972078.8
3970972.9
3969867.1
3968761.2
3967655.3
3966549.4
3965443.4
3964337.5
3963231.5
3962125.6
3961019.6
3959913.6
3958807.6
3957701.6
3956595.6
3955489.5
3954383.5
3953277.4
3952171.3
3951065.2
3949959.1
3948853
3947746.8
3946640.7
3945534.5
3944428.3
3943322.2
3942216
3941109.7
3940003.5
3938897.3
3937791
3936684.8
3935578.5
3934472.2
3933365.9
3932259.6
3931153.2
3930046.9
3928940.5
3927834.1
3926727.8
3925621.4
3924515
3923408.5
3922302.1
3921195.6
3920089.2
3918982.7
3917876.2
3916769.7
3915663.2
3914556.7
3913450.1
3912343.6
3911237
3910130.4
3909023.8
3907917.2
3906810.6
3905704
3904597.3
3903490.7
3902384
3901277.3
3900170.6
3899063.9
3897957.2
3896850.4
3895743.7
3894636.9
3893530.1
3892423.3
3891316.5
3890209.7
3889102.9
3887996
3886889.2
3885782.3
3884675.4
3883568.5
3882461.6
3881354.7
3880247.8
3879140.8
3878033.9
3876926.9
3875819.9
3874712.9
3873605.9
3872498.9
3871391.8
3870284.8
3869177.7
3868070.6
3866963.5
3865856.4
3864749.3
3863642.2
3862535
3861427.9
3860320.7
3859213.5
3858106.3
3856999.1
3855891.9
3854784.7
3853677.4
3852570.1
3851462.9
3850355.6
3849248.3
3848141
3847033.6
3845926.3
3844818.9
3843711.6
3842604.2
3841496.8
3840389.4
3839282
3838174.5
3837067.1
3835959.6
3834852.1
3833744.7
3832637.2
3831529.7
3830422.1
3829314.6
3828207
3827099.5
3825991.9
3824884.3
3823776.7
3822669.1
3821561.5
3820453.8
3819346.2
3818238.5
3817130.8
3816023.1
3814915.4
3813807.7
3812699.9
3811592.2
3810484.4
3809376.7
3808268.9
3807161.1
3806053.3
3804945.4
3803837.6
3802729.7
3801621.9
3800514
3799406.1
3798298.2
3797190.3
3796082.3
3794974.4
3793866.4
3792758.5
3791650.5
3790542.5
3789434.5
3788326.4
3787218.4
3786110.4
3785002.3
3783894.2
3782786.1
3781678
3780569.9
3779461.8
3778353.6
3777245.5
3776137.3
3775029.1
3773920.9
3772812.7
3771704.5
3770596.3
3769488
3768379.8
3767271.5
3766163.2
3765054.9
3763946.6
3762838.3
3761729.9
3760621.6
3759513.2
3758404.8
3757296.4
3756188
3755079.6
3753971.2
3752862.7
3751754.3
3750645.8
3749537.3
3748428.8
3747320.3
3746211.8
3745103.2
3743994.7
3742886.1
3741777.6
3740669
3739560.4
3738451.8
3737343.1
3736234.5
3735125.8
3734017.2
3732908.5
3731799.8
3730691.1
3729582.4
3728473.6
3727364.9
3726256.1
3725147.3
3724038.6
3722929.8
3721820.9
3720712.1
3719603.3
3718494.4
3717385.6
3716276.7
3715167.8
3714058.9
3712950
3711841
3710732.1
3709623.1
3708514.2
3707405.2
3706296.2
3705187.2
3704078.1
3702969.1
3701860.1
3700751
3699641.9
3698532.8
3697423.7
3696314.6
3695205.5
3694096.3
3692987.2
3691878
3690768.8
3689659.6
3688550.4
3687441.2
3686332
3685222.7
3684113.5
3683004.2
3681894.9
3680785.6
3679676.3
3678567
3677457.6
3676348.3
3675238.9
3674129.5
3673020.1
3671910.7
3670801.3
3669691.9
3668582.4
3667473
3666363.5
3665254
3664144.5
3663035
3661925.5
3660816
3659706.4
3658596.9
3657487.3
3656377.7
3655268.1
3654158.5
3653048.8
3651939.2
3650829.5
3649719.9
3648610.2
3647500.5
3646390.8
3645281.1
3644171.3
3643061.6
3641951.8
3640842
3639732.3
3638622.5
3637512.6
3636402.8
3635293
3634183.1
3633073.3
3631963.4
3630853.5
3629743.6
3628633.7
3627523.7
3626413.8
3625303.8
3624193.9
3623083.9
3621973.9
3620863.9
3619753.8
3618643.8
3617533.7
3616423.7
3615313.6
3614203.5
3613093.4
3611983.3
3610873.2
3609763
3608652.9
3607542.7
3606432.5
3605322.3
3604212.1
3603101.9
3601991.7
3600881.4
3599771.1
3598660.9
3597550.6
3596440.3
3595330
3594219.6
3593109.3
3591998.9
3590888.6
3589778.2
3588667.8
3587557.4
3586447
3585336.5
3584226.1
3583115.6
3582005.2
3580894.7
3579784.2
3578673.7
3577563.1
3576452.6
3575342
3574231.5
3573120.9
3572010.3
3570899.7
3569789.1
3568678.5
3567567.8
3566457.2
3565346.5
3564235.8
3563125.1
3562014.4
3560903.7
3559792.9
3558682.2
3557571.4
3556460.6
3555349.8
3554239
3553128.2
3552017.4
3550906.6
3549795.7
3548684.8
3547574
3546463.1
3545352.1
3544241.2
3543130.3
3542019.3
3540908.4
3539797.4
3538686.4
3537575.4
3536464.4
3535353.4
3534242.3
3533131.3
3532020.2
3530909.1
3529798
3528686.9
3527575.8
3526464.7
3525353.5
3524242.4
3523131.2
3522020
3520908.8
3519797.6
3518686.4
3517575.1
3516463.9
3515352.6
3514241.3
3513130.1
3512018.7
3510907.4
3509796.1
3508684.8
3507573.4
3506462
3505350.6
3504239.2
3503127.8
3502016.4
3500905
3499793.5
3498682.1
3497570.6
3496459.1
3495347.6
3494236.1
3493124.5
3492013
3490901.4
3489789.9
3488678.3
3487566.7
3486455.1
3485343.5
3484231.8
3483120.2
3482008.5
3480896.8
3479785.2
3478673.5
3477561.7
3476450
3475338.3
3474226.5
3473114.7
3472003
3470891.2
3469779.4
3468667.5
3467555.7
3466443.9
3465332
3464220.1
3463108.2
3461996.3
3460884.4
3459772.5
3458660.6
3457548.6
3456436.6
3455324.7
3454212.7
3453100.7
3451988.6
3450876.6
3449764.6
3448652.5
3447540.4
3446428.3
3445316.3
3444204.1
3443092
3441979.9
3440867.7
3439755.6
3438643.4
3437531.2
3436419
3435306.8
3434194.5
3433082.3
3431970
3430857.8
3429745.5
3428633.2
3427520.9
3426408.6
3425296.2
3424183.9
3423071.5
3421959.1
3420846.7
3419734.3
3418621.9
3417509.5
3416397
3415284.6
3414172.1
3413059.6
3411947.1
3410834.6
3409722.1
3408609.6
3407497
3406384.5
3405271.9
3404159.3
3403046.7
3401934.1
3400821.5
3399708.8
3398596.2
3397483.5
3396370.8
3395258.1
3394145.4
3393032.7
3391919.9
3390807.2
3389694.4
3388581.7
3387468.9
3386356.1
3385243.3
3384130.4
3383017.6
3381904.7
3380791.9
3379679
3378566.1
3377453.2
3376340.3
3375227.3
3374114.4
3373001.4
3371888.5
3370775.5
3369662.5
3368549.5
3367436.4
3366323.4
3365210.3
3364097.3
3362984.2
3361871.1
3360758
3359644.9
3358531.8
3357418.6
3356305.5
3355192.3
3354079.1
3352965.9
3351852.7
3350739.5
3349626.2
3348513
3347399.7
3346286.4
3345173.1
3344059.8
3342946.5
3341833.2
3340719.8
3339606.5
3338493.1
3337379.7
3336266.3
3335152.9
3334039.5
3332926.1
3331812.6
3330699.1
3329585.7
3328472.2
3327358.7
3326245.2
3325131.6
3324018.1
3322904.5
3321791
3320677.4
3319563.8
3318450.2
3317336.5
3316222.9
3315109.3
3313995.6
3312881.9
3311768.2
3310654.5
3309540.8
3308427.1
3307313.3
3306199.6
3305085.8
3303972
3302858.2
3301744.4
3300630.6
3299516.8
3298402.9
3297289.1
3296175.2
3295061.3
3293947.4
3292833.5
3291719.5
3290605.6
3289491.7
3288377.7
3287263.7
3286149.7
3285035.7
3283921.7
3282807.6
3281693.6
3280579.5
3279465.5
3278351.4
3277237.3
3276123.2
3275009
3273894.9
3272780.7
3271666.6
3270552.4
3269438.2
3268324
3267209.8
3266095.5
3264981.3
3263867
3262752.7
3261638.5
3260524.2
3259409.8
3258295.5
3257181.2
3256066.8
3254952.5
3253838.1
3252723.7
3251609.3
3250494.9
3249380.4
3248266
3247151.5
3246037
3244922.6
3243808.1
3242693.5
3241579
3240464.5
3239349.9
3238235.4
3237120.8
3236006.2
3234891.6
3233777
3232662.3
3231547.7
3230433
3229318.3
3228203.7
3227089
3225974.2
3224859.5
3223744.8
3222630
3221515.3
3220400.5
3219285.7
3218170.9
3217056.1
3215941.2
3214826.4
3213711.5
3212596.7
3211481.8
3210366.9
3209252
3208137
3207022.1
3205907.1
3204792.2
3203677.2
3202562.2
3201447.2
3200332.2
3199217.1
3198102.1
3196987
3195872
3194756.9
3193641.8
3192526.7
3191411.6
3190296.4
3189181.3
3188066.1
3186950.9
3185835.7
3184720.5
3183605.3
3182490.1
3181374.8
3180259.6
3179144.3
3178029
3176913.7
3175798.4
3174683.1
3173567.7
3172452.4
3171337
3170221.6
3169106.3
3167990.8
3166875.4
3165760
3164644.6
3163529.1
3162413.6
3161298.1
3160182.6
3159067.1
3157951.6
3156836.1
3155720.5
3154604.9
3153489.4
3152373.8
3151258.2
3150142.6
3149026.9
3147911.3
3146795.6
3145679.9
3144564.3
3143448.6
3142332.9
3141217.1
3140101.4
3138985.6
3137869.9
3136754.1
3135638.3
3134522.5
3133406.7
3132290.9
3131175
3130059.2
3128943.3
3127827.4
3126711.5
3125595.6
3124479.7
3123363.7
3122247.8
3121131.8
3120015.8
3118899.8
3117783.8
3116667.8
3115551.8
3114435.7
3113319.7
3112203.6
3111087.5
3109971.4
3108855.3
3107739.2
3106623.1
3105506.9
3104390.7
3103274.6
3102158.4
3101042.2
3099925.9
3098809.7
3097693.5
3096577.2
3095460.9
3094344.7
3093228.4
3092112
3090995.7
3089879.4
3088763
3087646.7
3086530.3
3085413.9
3084297.5
3083181.1
3082064.6
3080948.2
3079831.7
3078715.3
3077598.8
3076482.3
3075365.8
3074249.2
3073132.7
3072016.2
3070899.6
3069783
3068666.4
3067549.8
3066433.2
3065316.6
3064199.9
3063083.3
3061966.6
3060849.9
3059733.2
3058616.5
3057499.8
3056383
3055266.3
3054149.5
3053032.7
3051915.9
3050799.1
3049682.3
3048565.5
3047448.6
3046331.8
3045214.9
3044098
3042981.1
3041864.2
3040747.3
3039630.4
3038513.4
3037396.4
3036279.5
3035162.5
3034045.5
3032928.4
3031811.4
3030694.4
3029577.3
3028460.2
3027343.1
3026226
3025108.9
3023991.8
3022874.7
3021757.5
3020640.4
3019523.2
3018406
3017288.8
3016171.6
3015054.3
3013937.1
3012819.8
3011702.5
3010585.3
3009468
3008350.6
3007233.3
3006116
3004998.6
3003881.3
3002763.9
3001646.5
3000529.1
2999411.7
2998294.2
2997176.8
2996059.3
2994941.8
2993824.4
2992706.9
2991589.3
2990471.8
2989354.3
2988236.7
2987119.2
2986001.6
2984884
2983766.4
2982648.8
2981531.1
2980413.5
2979295.8
2978178.1
2977060.5
2975942.8
2974825
2973707.3
2972589.6
2971471.8
2970354
2969236.3
2968118.5
2967000.7
2965882.8
2964765
2963647.2
2962529.3
2961411.4
2960293.5
2959175.6
2958057.7
2956939.8
2955821.9
2954703.9
2953585.9
2952467.9
2951350
2950231.9
2949113.9
2947995.9
2946877.8
2945759.8
2944641.7
2943523.6
2942405.5
2941287.4
2940169.3
2939051.1
2937933
2936814.8
2935696.6
2934578.4
2933460.2
2932342
2931223.8
2930105.5
2928987.2
2927869
2926750.7
2925632.4
2924514.1
2923395.7
2922277.4
2921159
2920040.7
2918922.3
2917803.9
2916685.5
2915567
2914448.6
2913330.2
2912211.7
2911093.2
2909974.7
2908856.2
2907737.7
2906619.2
2905500.6
2904382.1
2903263.5
2902144.9
2901026.3
2899907.7
2898789.1
2897670.4
2896551.8
2895433.1
2894314.5
2893195.8
2892077.1
2890958.3
2889839.6
2888720.9
2887602.1
2886483.3
2885364.5
2884245.7
2883126.9
2882008.1
2880889.3
2879770.4
2878651.6
2877532.7
2876413.8
2875294.9
2874176
2873057
2871938.1
2870819.1
2869700.1
2868581.2
2867462.2
2866343.1
2865224.1
2864105.1
2862986
2861867
2860747.9
2859628.8
2858509.7
2857390.6
2856271.4
2855152.3
2854033.1
2852913.9
2851794.8
2850675.6
2849556.3
2848437.1
2847317.9
2846198.6
2845079.3
2843960.1
2842840.8
2841721.5
2840602.1
2839482.8
2838363.5
2837244.1
2836124.7
2835005.3
2833885.9
2832766.5
2831647.1
2830527.6
2829408.2
2828288.7
2827169.2
2826049.7
2824930.2
2823810.7
2822691.2
2821571.6
2820452.1
2819332.5
2818212.9
2817093.3
2815973.7
2814854
2813734.4
2812614.7
2811495.1
2810375.4
2809255.7
2808136
2807016.2
2805896.5
2804776.8
2803657
2802537.2
2801417.4
2800297.6
2799177.8
2798058
2796938.1
2795818.3
2794698.4
2793578.5
2792458.6
2791338.7
2790218.8
2789098.8
2787978.9
2786858.9
2785738.9
2784618.9
2783498.9
2782378.9
2781258.9
2780138.8
2779018.8
2777898.7
2776778.6
2775658.5
2774538.4
2773418.3
2772298.1
2771178
2770057.8
2768937.6
2767817.4
2766697.2
2765577
2764456.8
2763336.5
2762216.3
2761096
2759975.7
2758855.4
2757735.1
2756614.7
2755494.4
2754374
2753253.7
2752133.3
2751012.9
2749892.5
2748772.1
2747651.6
2746531.2
2745410.7
2744290.2
2743169.7
2742049.2
2740928.7
2739808.2
2738687.6
2737567.1
2736446.5
2735325.9
2734205.3
2733084.7
2731964.1
2730843.5
2729722.8
2728602.1
2727481.5
2726360.8
2725240.1
2724119.3
2722998.6
2721877.9
2720757.1
2719636.3
2718515.5
2717394.7
2716273.9
2715153.1
2714032.3
2712911.4
2711790.5
2710669.7
2709548.8
2708427.9
2707306.9
2706186
2705065.1
2703944.1
2702823.1
2701702.1
2700581.1
2699460.1
2698339.1
2697218
2696097
2694975.9
2693854.8
2692733.7
2691612.6
2690491.5
2689370.4
2688249.2
2687128.1
2686006.9
2684885.7
2683764.5
2682643.3
2681522
2680400.8
2679279.5
2678158.3
2677037
2675915.7
2674794.4
2673673
2672551.7
2671430.4
2670309
2669187.6
2668066.2
2666944.8
2665823.4
2664702
2663580.5
2662459.1
2661337.6
2660216.1
2659094.6
2657973.1
2656851.5
2655730
2654608.5
2653486.9
2652365.3
2651243.7
2650122.1
2649000.5
2647878.8
2646757.2
2645635.5
2644513.9
2643392.2
2642270.5
2641148.8
2640027
2638905.3
2637783.5
2636661.8
2635540
2634418.2
2633296.4
2632174.5
2631052.7
2629930.8
2628809
2627687.1
2626565.2
2625443.3
2624321.4
2623199.5
2622077.5
2620955.6
2619833.6
2618711.6
2617589.6
2616467.6
2615345.6
2614223.5
2613101.5
2611979.4
2610857.3
2609735.2
2608613.1
2607491
2606368.9
2605246.7
2604124.6
2603002.4
2601880.2
2600758
2599635.8
2598513.5
2597391.3
2596269
2595146.8
2594024.5
2592902.2
2591779.9
2590657.6
2589535.2
2588412.9
2587290.5
2586168.1
2585045.7
2583923.3
2582800.9
2581678.5
2580556
2579433.6
2578311.1
2577188.6
2576066.1
2574943.6
2573821.1
2572698.6
2571576
2570453.4
2569330.9
2568208.3
2567085.7
2565963
2564840.4
2563717.8
2562595.1
2561472.4
2560349.7
2559227
2558104.3
2556981.6
2555858.8
2554736.1
2553613.3
2552490.5
2551367.7
2550244.9
2549122.1
2547999.3
2546876.4
2545753.6
2544630.7
2543507.8
2542384.9
2541262
2540139
2539016.1
2537893.1
2536770.2
2535647.2
2534524.2
2533401.2
2532278.1
2531155.1
2530032.1
2528909
2527785.9
2526662.8
2525539.7
2524416.6
2523293.5
2522170.3
2521047.1
2519924
2518800.8
2517677.6
2516554.4
2515431.1
2514307.9
2513184.6
2512061.4
2510938.1
2509814.8
2508691.5
2507568.2
2506444.8
2505321.5
2504198.1
2503074.7
2501951.3
2500827.9
2499704.5
2498581.1
2497457.6
2496334.2
2495210.7
2494087.2
2492963.7
2491840.2
2490716.7
2489593.1
2488469.6
2487346
2486222.4
2485098.9
2483975.2
2482851.6
2481728
2480604.3
2479480.7
2478357
2477233.3
2476109.6
2474985.9
2473862.2
2472738.4
2471614.7
2470490.9
2469367.1
2468243.3
2467119.5
2465995.7
2464871.8
2463748
2462624.1
2461500.3
2460376.4
2459252.5
2458128.5
2457004.6
2455880.7
2454756.7
2453632.7
2452508.7
2451384.7
2450260.7
2449136.7
2448012.7
2446888.6
2445764.5
2444640.5
2443516.4
2442392.3
2441268.1
2440144
2439019.8
2437895.7
2436771.5
2435647.3
2434523.1
2433398.9
2432274.7
2431150.4
2430026.2
2428901.9
2427777.6
2426653.3
2425529
2424404.7
2423280.3
2422156
2421031.6
2419907.2
2418782.8
2417658.4
2416534
2415409.6
2414285.1
2413160.7
2412036.2
2410911.7
2409787.2
2408662.7
2407538.2
2406413.6
2405289.1
2404164.5
2403039.9
2401915.3
2400790.7
2399666.1
2398541.5
2397416.8
2396292.1
2395167.5
2394042.8
2392918.1
2391793.3
2390668.6
2389543.9
2388419.1
2387294.3
2386169.6
2385044.8
2383919.9
2382795.1
2381670.3
2380545.4
2379420.5
2378295.7
2377170.8
2376045.9
2374920.9
2373796
2372671.1
2371546.1
2370421.1
2369296.1
2368171.1
2367046.1
2365921.1
2364796
2363671
2362545.9
2361420.8
2360295.7
2359170.6
2358045.5
2356920.3
2355795.2
2354670
2353544.8
2352419.7
2351294.4
2350169.2
2349044
2347918.7
2346793.5
2345668.2
2344542.9
2343417.6
2342292.3
2341167
2340041.6
2338916.3
2337790.9
2336665.5
2335540.1
2334414.7
2333289.3
2332163.8
2331038.4
2329912.9
2328787.5
2327662
2326536.5
2325410.9
2324285.4
2323159.9
2322034.3
2320908.7
2319783.1
2318657.5
2317531.9
2316406.3
2315280.7
2314155
2313029.3
2311903.6
2310777.9
2309652.2
2308526.5
2307400.8
2306275
2305149.3
2304023.5
2302897.7
2301771.9
2300646.1
2299520.2
2298394.4
2297268.5
2296142.7
2295016.8
2293890.9
2292765
2291639
2290513.1
2289387.1
2288261.2
2287135.2
2286009.2
2284883.2
2283757.2
2282631.1
2281505.1
2280379
2279252.9
2278126.9
2277000.7
2275874.6
2274748.5
2273622.4
2272496.2
2271370
2270243.8
2269117.6
2267991.4
2266865.2
2265739
2264612.7
2263486.4
2262360.2
2261233.9
2260107.6
2258981.2
2257854.9
2256728.6
2255602.2
2254475.8
2253349.4
2252223
2251096.6
2249970.2
2248843.7
2247717.3
2246590.8
2245464.3
2244337.8
2243211.3
2242084.8
2240958.2
2239831.7
2238705.1
2237578.5
2236451.9
2235325.3
2234198.7
2233072.1
2231945.4
2230818.8
2229692.1
2228565.4
2227438.7
2226312
2225185.3
2224058.5
2222931.8
2221805
2220678.2
2219551.4
2218424.6
2217297.8
2216170.9
2215044.1
2213917.2
2212790.3
2211663.4
2210536.5
2209409.6
2208282.7
2207155.7
2206028.8
2204901.8
2203774.8
2202647.8
2201520.8
2200393.8
2199266.7
2198139.7
2197012.6
2195885.5
2194758.4
2193631.3
2192504.2
2191377
2190249.9
2189122.7
2187995.5
2186868.3
2185741.1
2184613.9
2183486.7
2182359.4
2181232.2
2180104.9
2178977.6
2177850.3
2176723
2175595.7
2174468.3
2173341
2172213.6
2171086.2
2169958.8
2168831.4
2167704
2166576.5
2165449.1
2164321.6
2163194.1
2162066.6
2160939.1
2159811.6
2158684.1
2157556.5
2156429
2155301.4
2154173.8
2153046.2
2151918.6
2150791
2149663.3
2148535.7
2147408
2146280.3
2145152.6
2144024.9
2142897.2
2141769.4
2140641.7
2139513.9
2138386.1
2137258.4
2136130.5
2135002.7
2133874.9
2132747
2131619.2
2130491.3
2129363.4
2128235.5
2127107.6
2125979.7
2124851.7
2123723.8
2122595.8
2121467.8
2120339.8
2119211.8
2118083.8
2116955.7
2115827.7
2114699.6
2113571.5
2112443.5
2111315.3
2110187.2
2109059.1
2107930.9
2106802.8
2105674.6
2104546.4
2103418.2
2102290
2101161.8
2100033.5
2098905.3
2097777
2096648.7
2095520.4
2094392.1
2093263.8
2092135.4
2091007.1
2089878.7
2088750.3
2087621.9
2086493.5
2085365.1
2084236.7
2083108.2
2081979.8
2080851.3
2079722.8
2078594.3
2077465.8
2076337.3
2075208.7
2074080.2
2072951.6
2071823
2070694.4
2069565.8
2068437.2
2067308.5
2066179.9
2065051.2
2063922.5
2062793.8
2061665.1
2060536.4
2059407.7
2058278.9
2057150.1
2056021.4
2054892.6
2053763.8
2052635
2051506.1
2050377.3
2049248.4
2048119.6
2046990.7
2045861.8
2044732.9
2043603.9
2042475
2041346
2040217.1
2039088.1
2037959.1
2036830.1
2035701.1
2034572
2033443
2032313.9
2031184.8
2030055.7
2028926.6
2027797.5
2026668.4
2025539.2
2024410.1
2023280.9
2022151.7
2021022.5
2019893.3
2018764.1
2017634.8
2016505.6
2015376.3
2014247
2013117.7
2011988.4
2010859.1
2009729.8
2008600.4
2007471
2006341.7
2005212.3
2004082.9
2002953.5
2001824
2000694.6
1999565.1
1998435.6
1997306.1
1996176.6
1995047.1
1993917.6
1992788.1
1991658.5
1990528.9
1989399.4
1988269.8
1987140.1
1986010.5
1984880.9
1983751.2
1982621.6
1981491.9
1980362.2
1979232.5
1978102.8
1976973
1975843.3
1974713.5
1973583.7
1972454
1971324.1
1970194.3
1969064.5
1967934.7
1966804.8
1965674.9
1964545
1963415.1
1962285.2
1961155.3
1960025.4
1958895.4
1957765.4
1956635.5
1955505.5
1954375.5
1953245.4
1952115.4
1950985.4
1949855.3
1948725.2
1947595.1
1946465
1945334.9
1944204.8
1943074.6
1941944.5
1940814.3
1939684.1
1938553.9
1937423.7
1936293.5
1935163.2
1934033
1932902.7
1931772.4
1930642.1
1929511.8
1928381.5
1927251.1
1926120.8
1924990.4
1923860.1
1922729.7
1921599.3
1920468.8
1919338.4
1918208
1917077.5
1915947
1914816.5
1913686
1912555.5
1911425
1910294.4
1909163.9
1908033.3
1906902.7
1905772.1
1904641.5
1903510.9
1902380.3
1901249.6
1900118.9
1898988.3
1897857.6
1896726.8
1895596.1
1894465.4
1893334.6
1892203.9
1891073.1
1889942.3
1888811.5
1887680.7
1886549.9
1885419
1884288.2
1883157.3
1882026.4
1880895.5
1879764.6
1878633.7
1877502.7
1876371.8
1875240.8
1874109.8
1872978.8
1871847.8
1870716.8
1869585.7
1868454.7
1867323.6
1866192.5
1865061.5
1863930.3
1862799.2
1861668.1
1860536.9
1859405.8
1858274.6
1857143.4
1856012.2
1854881
1853749.8
1852618.5
1851487.3
1850356
1849224.7
1848093.4
1846962.1
1845830.8
1844699.4
1843568.1
1842436.7
1841305.3
1840173.9
1839042.5
1837911.1
1836779.7
1835648.2
1834516.8
1833385.3
1832253.8
1831122.3
1829990.8
1828859.2
1827727.7
1826596.1
1825464.6
1824333
1823201.4
1822069.8
1820938.1
1819806.5
1818674.8
1817543.2
1816411.5
1815279.8
1814148.1
1813016.3
1811884.6
1810752.9
1809621.1
1808489.3
1807357.5
1806225.7
1805093.9
1803962.1
1802830.2
1801698.3
1800566.5
1799434.6
1798302.7
1797170.8
1796038.8
1794906.9
1793774.9
1792642.9
1791511
1790379
1789246.9
1788114.9
1786982.9
1785850.8
1784718.8
1783586.7
1782454.6
1781322.5
1780190.3
1779058.2
1777926.1
1776793.9
1775661.7
1774529.5
1773397.3
1772265.1
1771132.9
1770000.6
1768868.4
1767736.1
1766603.8
1765471.5
1764339.2
1763206.8
1762074.5
1760942.1
1759809.8
1758677.4
1757545
1756412.6
1755280.1
1754147.7
1753015.2
1751882.8
1750750.3
1749617.8
1748485.3
1747352.8
1746220.2
1745087.7
1743955.1
1742822.5
1741689.9
1740557.3
1739424.7
1738292.1
1737159.4
1736026.8
1734894.1
1733761.4
1732628.7
1731496
1730363.3
1729230.5
1728097.8
1726965
1725832.2
1724699.4
1723566.6
1722433.8
1721300.9
1720168.1
1719035.2
1717902.3
1716769.4
1715636.5
1714503.6
1713370.7
1712237.7
1711104.8
1709971.8
1708838.8
1707705.8
1706572.8
1705439.7
1704306.7
1703173.6
1702040.5
1700907.5
1699774.4
1698641.2
1697508.1
1696375
1695241.8
1694108.6
1692975.5
1691842.3
1690709
1689575.8
1688442.6
1687309.3
1686176.1
1685042.8
1683909.5
1682776.2
1681642.9
1680509.5
1679376.2
1678242.8
1677109.4
1675976
1674842.6
1673709.2
1672575.8
1671442.3
1670308.9
1669175.4
1668041.9
1666908.4
1665774.9
1664641.4
1663507.8
1662374.3
1661240.7
1660107.1
1658973.5
1657839.9
1656706.3
1655572.6
1654439
1653305.3
1652171.6
1651037.9
1649904.2
1648770.5
1647636.8
1646503
1645369.2
1644235.5
1643101.7
1641967.9
1640834.1
1639700.2
1638566.4
1637432.5
1636298.6
1635164.7
1634030.8
1632896.9
1631763
1630629.1
1629495.1
1628361.1
1627227.1
1626093.1
1624959.1
1623825.1
1622691.1
1621557
1620422.9
1619288.9
1618154.8
1617020.7
1615886.5
1614752.4
1613618.2
1612484.1
1611349.9
1610215.7
1609081.5
1607947.3
1606813
1605678.8
1604544.5
1603410.3
1602276
1601141.7
1600007.4
1598873
1597738.7
1596604.3
1595470
1594335.6
1593201.2
1592066.8
1590932.3
1589797.9
1588663.4
1587529
1586394.5
1585260
1584125.5
1582990.9
1581856.4
1580721.9
1579587.3
1578452.7
1577318.1
1576183.5
1575048.9
1573914.3
1572779.6
1571644.9
1570510.3
1569375.6
1568240.9
1567106.2
1565971.4
1564836.7
1563701.9
1562567.2
1561432.4
1560297.6
1559162.8
1558027.9
1556893.1
1555758.2
1554623.4
1553488.5
1552353.6
1551218.7
1550083.7
1548948.8
1547813.8
1546678.9
1545543.9
1544408.9
1543273.9
1542138.9
1541003.8
1539868.8
1538733.7
1537598.6
1536463.6
1535328.5
1534193.3
1533058.2
1531923.1
1530787.9
1529652.7
1528517.5
1527382.3
1526247.1
1525111.9
1523976.6
1522841.4
1521706.1
1520570.8
1519435.5
1518300.2
1517164.9
1516029.6
1514894.2
1513758.8
1512623.4
1511488.1
1510352.6
1509217.2
1508081.8
1506946.3
1505810.9
1504675.4
1503539.9
1502404.4
1501268.9
1500133.3
1498997.8
1497862.2
1496726.6
1495591.1
1494455.5
1493319.8
1492184.2
1491048.6
1489912.9
1488777.2
1487641.5
1486505.8
1485370.1
1484234.4
1483098.7
1481962.9
1480827.1
1479691.4
1478555.6
1477419.7
1476283.9
1475148.1
1474012.2
1472876.4
1471740.5
1470604.6
1469468.7
1468332.8
1467196.8
1466060.9
1464924.9
1463788.9
1462652.9
1461516.9
1460380.9
1459244.9
1458108.8
1456972.8
1455836.7
1454700.6
1453564.5
1452428.4
1451292.3
1450156.1
1449020
1447883.8
1446747.6
1445611.4
1444475.2
1443339
1442202.7
1441066.5
1439930.2
1438793.9
1437657.6
1436521.3
1435385
1434248.6
1433112.3
1431975.9
1430839.5
1429703.2
1428566.7
1427430.3
1426293.9
1425157.4
1424021
1422884.5
1421748
1420611.5
1419475
1418338.5
1417201.9
1416065.3
1414928.8
1413792.2
1412655.6
1411519
1410382.3
1409245.7
1408109
1406972.4
1405835.7
1404699
1403562.3
1402425.5
1401288.8
1400152.1
1399015.3
1397878.5
1396741.7
1395604.9
1394468.1
1393331.2
1392194.4
1391057.5
1389920.6
1388783.7
1387646.8
1386509.9
1385373
1384236
1383099.1
1381962.1
1380825.1
1379688.1
1378551.1
1377414
1376277
1375139.9
1374002.9
1372865.8
1371728.7
1370591.6
1369454.4
1368317.3
1367180.1
1366043
1364905.8
1363768.6
1362631.4
1361494.1
1360356.9
1359219.6
1358082.4
1356945.1
1355807.8
1354670.5
1353533.2
1352395.8
1351258.5
1350121.1
1348983.7
1347846.3
1346708.9
1345571.5
1344434.1
1343296.6
1342159.2
1341021.7
1339884.2
1338746.7
1337609.2
1336471.6
1335334.1
1334196.5
1333059
1331921.4
1330783.8
1329646.2
1328508.5
1327370.9
1326233.2
1325095.6
1323957.9
1322820.2
1321682.5
1320544.7
1319407
1318269.2
1317131.5
1315993.7
1314855.9
1313718.1
1312580.3
1311442.4
1310304.6
1309166.7
1308028.8
1306890.9
1305753
1304615.1
1303477.2
1302339.2
1301201.2
1300063.3
1298925.3
1297787.3
1296649.3
1295511.2
1294373.2
1293235.1
1292097
1290958.9
1289820.8
1288682.7
1287544.6
1286406.5
1285268.3
1284130.1
1282991.9
1281853.7
1280715.5
1279577.3
1278439.1
1277300.8
1276162.5
1275024.2
1273885.9
1272747.6
1271609.3
1270471
1269332.6
1268194.3
1267055.9
1265917.5
1264779.1
1263640.6
1262502.2
1261363.8
1260225.3
1259086.8
1257948.3
1256809.8
1255671.3
1254532.8
1253394.2
1252255.7
1251117.1
1249978.5
1248839.9
1247701.3
1246562.6
1245424
1244285.3
1243146.7
1242008
1240869.3
1239730.6
1238591.8
1237453.1
1236314.3
1235175.5
1234036.8
1232898
1231759.2
1230620.3
1229481.5
1228342.6
1227203.8
1226064.9
1224926
1223787.1
1222648.1
1221509.2
1220370.3
1219231.3
1218092.3
1216953.3
1215814.3
1214675.3
1213536.3
1212397.2
1211258.1
1210119.1
1208980
1207840.9
1206701.7
1205562.6
1204423.5
1203284.3
1202145.1
1201005.9
1199866.7
1198727.5
1197588.3
1196449
1195309.8
1194170.5
1193031.2
1191891.9
1190752.6
1189613.3
1188473.9
1187334.6
1186195.2
1185055.8
1183916.4
1182777
1181637.6
1180498.1
1179358.7
1178219.2
1177079.7
1175940.2
1174800.7
1173661.2
1172521.7
1171382.1
1170242.6
1169103
1167963.4
1166823.8
1165684.2
1164544.5