/*--------------------------------*- C++ -*----------------------------------*\
  =========                 |
  \\      /  F ield         | OpenFOAM: The Open Source CFD Toolbox
   \\    /   O peration     | Website:  https://openfoam.org
    \\  /    A nd           | Version:  6
     \\/     M anipulation  |
\*---------------------------------------------------------------------------*/
FoamFile
{
    version     2.0;
    format      ascii;
    class       volVectorField;
    location    "10000";
    object      grad(p);
}
// * * * * * * * * * * * * * * * * * * * * * * * * * * * * * * * * * * * * * //

dimensions      [0 1 -2 0 0 0 0];

internalField   nonuniform List<vector> 
6760
(
(-207986.67 0 0)
(-286008.34 0 0)
(-181998.33 1.7386399e-08 0)
(-195000.83 0 0)
(-182000 1.7393081e-08 0)
(-182000 0 0)
(-182000 0 0)
(-169000.83 0 0)
(-168999.17 1.740646e-08 0)
(-182000 0 0)
(-182000 0 0)
(-182000 1.7416508e-08 0)
(-182000 0 0)
(-182000 1.7423213e-08 0)
(-182000 0 0)
(-182000 1.7429924e-08 0)
(-182000 0 0)
(-182000 0 0)
(-182000 1.7439999e-08 0)
(-182000 0 0)
(-182000 1.7446722e-08 0)
(-182000 0 0)
(-169000.84 1.745345e-08 0)
(-168999.16 0 0)
(-182000 0 0)
(-182000 1.7463554e-08 0)
(-182000 0 0)
(-182000 1.7470295e-08 0)
(-182000 0 0)
(-182000 1.7477041e-08 0)
(-182000 0 0)
(-182000 1.7483793e-08 0)
(-182000 0 0)
(-182000 0 0)
(-182000 1.7493931e-08 0)
(-182000 0 0)
(-182000 1.7500696e-08 0)
(-182000 0 0)
(-182000 1.7507466e-08 0)
(-182000 0 0)
(-169000.84 1.7514241e-08 0)
(-168999.16 0 0)
(-182000 0 0)
(-182000 1.7524415e-08 0)
(-182000 0 0)
(-182000 1.7531204e-08 0)
(-182000 0 0)
(-182000 1.7537998e-08 0)
(-182000 0 0)
(-182000 0 0)
(-182000 1.7548198e-08 0)
(-182000 0 0)
(-182000 1.7555006e-08 0)
(-182000 0 0)
(-182000 1.7561818e-08 0)
(-182000 0 0)
(-182000 1.7568636e-08 0)
(-182000 0 0)
(-182000 0 0)
(-182000 1.7578871e-08 0)
(-182000 0 0)
(-182000 1.7585702e-08 0)
(-182000 0 0)
(-182000 1.7592539e-08 0)
(-182000 0 0)
(-182000 1.7599381e-08 0)
(-182000 0 0)
(-169000.84 0 0)
(-168999.16 1.7609653e-08 0)
(-182000 0 0)
(-182000 1.7616508e-08 0)
(-182000 0 0)
(-182000 1.7623368e-08 0)
(-182000 0 0)
(-182000 1.7630234e-08 0)
(-182000 0 0)
(-182000 0 0)
(-182000 1.7640543e-08 0)
(-182000 0 0)
(-182000 1.7647421e-08 0)
(-182000 0 0)
(-182000 1.7654306e-08 0)
(-182000 0 0)
(-182000 0 0)
(-182000 1.7664643e-08 0)
(-182000 0 0)
(-182000 1.7671541e-08 0)
(-182000 0 0)
(-182000 1.7678444e-08 0)
(-182000 0 0)
(-182000 1.7685353e-08 0)
(-182000 0 0)
(-182000 0 0)
(-182000 1.7695726e-08 0)
(-182000 0 0)
(-182000 1.7702648e-08 0)
(-182000 0 0)
(-182000 1.7709576e-08 0)
(-182000 0 0)
(-182000 1.7716509e-08 0)
(-182000 0 0)
(-182000 0 0)
(-182000 0 0)
(-182000 0 0)
(-182000 1.7733865e-08 0)
(-182000 0 0)
(-182000 1.7740817e-08 0)
(-182000 0 0)
(-182000 0 0)
(-182000 0 0)
(-182000 0 0)
(-182000 0 0)
(-182000 0 0)
(-182000 0 0)
(-182000 0 0)
(-182000 1.7772169e-08 0)
(-182000 1.777566e-08 0)
(-182000 0 0)
(-182000 0 0)
(-182000 0 0)
(-182000 0 0)
(-182000 1.7793132e-08 0)
(-182000 0 0)
(-182000 0 0)
(-182000 1.7803632e-08 0)
(-182000 0 0)
(-182000 0 0)
(-182000 1.7814145e-08 0)
(-182000 0 0)
(-182000 1.7821161e-08 0)
(-182000 0 0)
(-182000 0 0)
(-182000 0 0)
(-182000 1.7835207e-08 0)
(-182000 1.7838723e-08 0)
(-182000 0 0)
(-182000 1.7845758e-08 0)
(-182000 0 0)
(-182000 1.7852798e-08 0)
(-182000 0 0)
(-182000 0 0)
(-182000 1.7863368e-08 0)
(-182000 1.7866895e-08 0)
(-182000 1.7870423e-08 0)
(-182000 0 0)
(-182000 1.7877483e-08 0)
(-182000 0 0)
(-182000 1.7884548e-08 0)
(-182000 0 0)
(-182000 0 0)
(-182000 1.7895156e-08 0)
(-182000 0 0)
(-182000 1.7902236e-08 0)
(-182000 0 0)
(-182000 0 0)
(-182000 1.7912866e-08 0)
(-182000 1.7916412e-08 0)
(-182000 0 0)
(-182000 0 0)
(-182000 1.7927058e-08 0)
(-182000 1.793061e-08 0)
(-182000 1.7934162e-08 0)
(-182000 0 0)
(-182000 1.7941273e-08 0)
(-182000 0 0)
(-182000 0 0)
(-182000 0 0)
(-182000 0 0)
(-182000 1.7959074e-08 0)
(-182000 1.7962638e-08 0)
(-182000 1.7966203e-08 0)
(-182000 0 0)
(-182000 1.7973339e-08 0)
(-182000 1.797691e-08 0)
(-182000 0 0)
(-182000 1.7984054e-08 0)
(-182000 0 0)
(-182000 1.7991204e-08 0)
(-182000 0 0)
(-182000 1.799836e-08 0)
(-182000 0 0)
(-169000.86 1.8005521e-08 0)
(-168999.14 1.8009105e-08 0)
(-182000 0 0)
(-182000 1.8016275e-08 0)
(-182000 0 0)
(-182000 1.8023451e-08 0)
(-182000 0 0)
(-182000 1.8030632e-08 0)
(-182000 0 0)
(-182000 1.8037819e-08 0)
(-182000 0 0)
(-182000 0 0)
(-182000 1.804861e-08 0)
(-182000 1.8052211e-08 0)
(-182000 1.8055812e-08 0)
(-182000 0 0)
(-182000 1.8063019e-08 0)
(-182000 0 0)
(-182000 1.8070233e-08 0)
(-182000 0 0)
(-169000.87 0 0)
(-181998.27 1.8081063e-08 0)
(-195000.87 1.8084676e-08 0)
(-182000 1.808829e-08 0)
(-182000 0 0)
(-182000 1.8095523e-08 0)
(-169000.87 1.8099143e-08 0)
(-181998.26 1.8102764e-08 0)
(-182001.74 1.8106384e-08 0)
(-168999.13 0 0)
(-182000 1.8113633e-08 0)
(-182000 1.8117259e-08 0)
(-182000 1.8120886e-08 0)
(-182000 0 0)
(-182000 1.8128146e-08 0)
(-182000 1.8131778e-08 0)
(-182000 0 0)
(-182000 1.8139046e-08 0)
(-169000.87 0 0)
(-181998.26 1.8146321e-08 0)
(-182001.74 1.8149959e-08 0)
(-181998.26 1.81536e-08 0)
(-182001.74 0 0)
(-181998.26 1.8160886e-08 0)
(-182001.74 1.8164531e-08 0)
(-181998.26 1.8168178e-08 0)
(-182001.74 1.8171825e-08 0)
(-181998.26 0 0)
(-182001.74 1.8179126e-08 0)
(-181998.26 0 0)
(-182001.74 1.8186432e-08 0)
(-181998.26 0 0)
(-169002.62 1.8193744e-08 0)
(-181996.51 1.8197404e-08 0)
(-169004.36 0 0)
(-207993.02 1.8204726e-08 0)
(-130012.22 0 0)
(-246979.91 1.8212056e-08 0)
(-78031.448 1.821571e-08 0)
(-350952.81 0 -148991.8)
(51923.095 1.8223035e-08 0)
(-636879.36 1.8226748e-08 -149051.9)
(376808.53 1.8230347e-08 0)
(-1312697.4 0 -149112.06)
(1546505 1.8237624e-08 149142.16)
(-1975273.1 1.8241588e-08 -447516.8)
(7993599 1.8244864e-08 298404.77)
(5903518.5 0 -1641557.7)
(50201454 0 -895575.98)
(88102838 1.8260002e-08 -8061812.3)
(2.9960756e+08 1.8265545e-08 -11945839)
(6.0507995e+08 0 -39727944)
(1.4498621e+09 0 -74691683)
(2.7877839e+09 1.8385517e-08 -1.4209231e+08)
(3.4661502e+09 1.8495003e-08 -3.1995915e+08)
(1.9788775e+09 1.8613581e-08 2541058.3)
(-4.1940355e+10 0 -1.2371478e+09)
(-1.21453e+11 0 2.7945011e+09)
(-4.2267591e+11 1.0885671e-08 -1.0699715e+10)
(-207986.67 3.4506884e-08 0)
(-286008.34 0 0)
(-181998.33 -1.7260064e-08 0)
(-195000.83 0 0)
(-182000 1.7266697e-08 0)
(-182000 0 0)
(-182000 0 0)
(-169000.83 0 0)
(-168999.17 -1.7279979e-08 0)
(-182000 -3.4566606e-08 0)
(-182000 0 0)
(-182000 -1.7289954e-08 0)
(-182000 0 0)
(-182000 1.7296611e-08 0)
(-182000 0 0)
(-182000 -1.7303272e-08 0)
(-182000 0 0)
(-182000 0 0)
(-182000 1.7313274e-08 0)
(-182000 0 0)
(-182000 -1.7319948e-08 0)
(-182000 0 0)
(-169000.84 -5.1979883e-08 0)
(-168999.16 0 0)
(-182000 0 0)
(-182000 -1.7336658e-08 0)
(-182000 0 0)
(-182000 1.734335e-08 0)
(-182000 0 0)
(-182000 -1.7350047e-08 0)
(-182000 0 0)
(-182000 1.735675e-08 0)
(-182000 0 0)
(-182000 0 0)
(-182000 -1.7366814e-08 0)
(-182000 0 0)
(-182000 -1.737353e-08 0)
(-182000 0 0)
(-182000 -1.7380251e-08 0)
(-182000 0 0)
(-169000.84 1.7386977e-08 0)
(-168999.16 0 0)
(-182000 0 0)
(-182000 -1.7397077e-08 0)
(-182000 3.4800892e-08 0)
(-182000 -1.7403816e-08 0)
(-182000 0 0)
(-182000 -1.7410561e-08 0)
(-182000 0 0)
(-182000 0 0)
(-182000 -1.7420687e-08 0)
(-182000 0 0)
(-182000 -1.7427445e-08 0)
(-182000 3.4861651e-08 0)
(-182000 -1.7434208e-08 0)
(-182000 3.4875182e-08 0)
(-182000 -1.7440976e-08 0)
(-182000 0 0)
(-182000 0 0)
(-182000 1.7451138e-08 0)
(-182000 0 0)
(-182000 -1.7457919e-08 0)
(-182000 0 0)
(-182000 1.7464705e-08 0)
(-182000 0 0)
(-182000 -1.7471498e-08 0)
(-182000 3.494979e-08 0)
(-169000.84 0 0)
(-168999.16 1.7481696e-08 0)
(-182000 0 0)
(-182000 -1.7488501e-08 0)
(-182000 0 0)
(-182000 1.7495311e-08 0)
(-182000 0 0)
(-182000 -1.7502127e-08 0)
(-182000 0 0)
(-182000 3.5017896e-08 0)
(-182000 -1.7512361e-08 0)
(-182000 0 0)
(-182000 -1.7519189e-08 0)
(-182000 0 0)
(-182000 1.7526024e-08 0)
(-182000 0 0)
(-182000 3.5065727e-08 0)
(-182000 -1.7536286e-08 0)
(-182000 3.5079417e-08 0)
(-182000 -1.7543133e-08 0)
(-182000 3.5093118e-08 0)
(-182000 -1.7549986e-08 0)
(-182000 0 0)
(-182000 -1.7556845e-08 0)
(-182000 0 0)
(-182000 3.5127417e-08 0)
(-182000 -1.7567143e-08 0)
(-182000 3.5141155e-08 0)
(-182000 -1.7574015e-08 0)
(-182000 3.5154904e-08 0)
(-182000 -1.7580892e-08 0)
(-182000 0 0)
(-182000 -1.7587775e-08 0)
(-182000 3.5182435e-08 0)
(-182000 0 0)
(-182000 0 0)
(-182000 0 0)
(-182000 -1.7605005e-08 0)
(-182000 3.5216909e-08 0)
(-182000 -1.7611906e-08 0)
(-182000 3.5230718e-08 0)
(-182000 0 0)
(-182000 3.5244537e-08 0)
(-182000 0 0)
(-182000 0 0)
(-182000 0 0)
(-182000 3.5272208e-08 0)
(-182000 0 0)
(-182000 -1.764303e-08 0)
(-182000 -5.2939487e-08 0)
(-182000 0 0)
(-182000 3.5306859e-08 0)
(-182000 0 0)
(-182000 0 0)
(-182000 -5.2991525e-08 0)
(-182000 3.5334629e-08 0)
(-182000 0 0)
(-182000 -1.7674265e-08 0)
(-182000 0 0)
(-182000 3.5362442e-08 0)
(-182000 -1.7684702e-08 0)
(-182000 0 0)
(-182000 -5.3074998e-08 0)
(-182000 0 0)
(-182000 3.5397271e-08 0)
(-182000 0 0)
(-182000 -1.7705611e-08 0)
(-182000 -5.3127303e-08 0)
(-182000 3.5425183e-08 0)
(-182000 -1.7716085e-08 0)
(-182000 0 0)
(-182000 -1.7723074e-08 0)
(-182000 3.545314e-08 0)
(-182000 0 0)
(-182000 1.7733567e-08 0)
(-182000 -1.7737068e-08 0)
(-182000 -1.7740571e-08 0)
(-182000 3.5488147e-08 0)
(-182000 -1.7747579e-08 0)
(-182000 0 0)
(-182000 -5.3263779e-08 0)
(-182000 3.5516204e-08 0)
(-182000 0 0)
(-182000 -1.7765124e-08 0)
(-182000 0 0)
(-182000 1.7772152e-08 0)
(-182000 0 0)
(-182000 3.5558371e-08 0)
(-182000 -1.7782705e-08 0)
(-182000 -1.7786225e-08 0)
(-182000 3.5579493e-08 0)
(-182000 0 0)
(-182000 -1.7796794e-08 0)
(-182000 -5.340096e-08 0)
(-182000 1.7803847e-08 0)
(-182000 0 0)
(-182000 1.7810905e-08 0)
(-182000 0 0)
(-182000 3.563594e-08 0)
(-182000 0 0)
(-182000 0 0)
(-182000 -1.7828577e-08 0)
(-182000 -5.3496347e-08 0)
(-182000 -1.7835655e-08 0)
(-182000 0 0)
(-182000 -1.7842739e-08 0)
(-182000 -1.7846284e-08 0)
(-182000 0 0)
(-182000 -1.7853376e-08 0)
(-182000 0 0)
(-182000 -1.7860474e-08 0)
(-182000 0 0)
(-182000 -1.7867578e-08 0)
(-182000 0 0)
(-169000.86 -5.3624061e-08 0)
(-168999.14 -1.7878245e-08 0)
(-182000 0 0)
(-182000 -1.7885363e-08 0)
(-182000 0 0)
(-182000 -1.7892486e-08 0)
(-182000 0 0)
(-182000 -1.7899615e-08 0)
(-182000 0 0)
(-182000 -5.3720251e-08 0)
(-182000 -3.5820639e-08 0)
(-182000 0 0)
(-182000 -1.7917463e-08 0)
(-182000 -5.3763112e-08 0)
(-182000 -1.7924613e-08 0)
(-182000 0 0)
(-182000 -1.7931768e-08 0)
(-182000 0 0)
(-182000 -1.7938928e-08 0)
(-182000 0 0)
(-169000.87 0 0)
(-181998.27 -1.794968e-08 0)
(-195000.87 -5.38598e-08 0)
(-182000 -5.3870563e-08 0)
(-182000 0 0)
(-182000 -1.7964035e-08 0)
(-169000.87 -5.3902884e-08 0)
(-181998.26 -1.7971223e-08 0)
(-182001.74 -1.7974817e-08 0)
(-168999.13 0 0)
(-182000 -1.7982013e-08 0)
(-182000 -5.3956839e-08 0)
(-182000 -5.3967642e-08 0)
(-182000 0 0)
(-182000 -1.7996421e-08 0)
(-182000 -5.400008e-08 0)
(-182000 -3.6007266e-08 0)
(-182000 -1.8007242e-08 0)
(-169000.87 0 0)
(-181998.26 -5.4043392e-08 0)
(-182001.74 -1.8018076e-08 0)
(-181998.26 -1.802169e-08 0)
(-182001.74 0 0)
(-181998.26 -1.8028923e-08 0)
(-182001.74 -5.4097624e-08 0)
(-181998.26 -5.4108485e-08 0)
(-182001.74 -1.8039783e-08 0)
(-181998.26 0 0)
(-182001.74 -5.414109e-08 0)
(-181998.26 -3.6101313e-08 0)
(-182001.74 -1.8054283e-08 0)
(-181998.26 0 0)
(-169002.62 -5.4184627e-08 0)
(-181996.51 -5.4195527e-08 0)
(-169004.36 -3.6137613e-08 0)
(-207993.02 -1.8072444e-08 0)
(-130012.22 0 0)
(-246979.91 -5.4239163e-08 0)
(-91030.575 -5.4250045e-08 0)
(-350954.56 0 -148991.8)
(51924.843 -1.809062e-08 0)
(-636881.11 -5.428292e-08 -149051.9)
(376815.49 -5.429364e-08 147998.7)
(-1299700.1 0 -149112.06)
(1520515.4 -1.8105103e-08 297200.6)
(-1962291.4 -5.4327111e-08 -743693.46)
(7889609.6 -5.4336874e-08 150286.54)
(5799440.2 -3.6233687e-08 -3419335.4)
(49642390 0 -4007315.5)
(87140417 -1.8127319e-08 -19473829)
(2.9685087e+08 -5.4398269e-08 -35515675)
(5.996179e+08 -3.6306341e-08 -99183380)
(1.4409529e+09 0 -1.9985511e+08)
(2.766444e+09 -1.8251921e-08 -3.5850269e+08)
(3.478715e+09 -5.5077519e-08 -7.8417096e+08)
(1.8991429e+09 -1.8478328e-08 -47910825)
(-4.1697702e+10 3.6967842e-08 -2.3431581e+09)
(-1.2227518e+11 0 7.0663877e+09)
(-4.2198952e+11 -3.2297287e-08 -2.2236752e+10)
(-207986.67 -3.4256146e-08 0)
(-286008.34 0 0)
(-181998.33 0 0)
(-195000.83 0 0)
(-182000 -3.4282462e-08 0)
(-182000 -6.8578102e-08 0)
(-182000 6.8591285e-08 0)
(-169000.83 -6.8604473e-08 0)
(-168999.17 0 0)
(-182000 3.4315434e-08 0)
(-182000 0 0)
(-182000 0 0)
(-182000 0 0)
(-182000 -3.4341855e-08 0)
(-182000 0 0)
(-182000 0 0)
(-182000 0 0)
(-182000 0 0)
(-182000 -3.437494e-08 0)
(-182000 0 0)
(-182000 -6.8776383e-08 0)
(-182000 0 0)
(-169000.84 3.4401454e-08 0)
(-168999.16 0 0)
(-182000 0 0)
(-182000 0 0)
(-182000 0 0)
(-182000 -3.4434654e-08 0)
(-182000 0 0)
(-182000 0 0)
(-182000 0 0)
(-182000 -3.446126e-08 0)
(-182000 0 0)
(-182000 0 0)
(-182000 0 0)
(-182000 0 0)
(-182000 0 0)
(-182000 0 0)
(-182000 0 0)
(-182000 0 0)
(-169000.84 -3.4521275e-08 0)
(-168999.16 0 0)
(-182000 0 0)
(-182000 0 0)
(-182000 -3.4548017e-08 0)
(-182000 0 0)
(-182000 0 0)
(-182000 0 0)
(-182000 0 0)
(-182000 0 0)
(-182000 0 0)
(-182000 0 0)
(-182000 0 0)
(-182000 -3.4608334e-08 0)
(-182000 0 0)
(-182000 3.4621767e-08 0)
(-182000 0 0)
(-182000 0 0)
(-182000 0 0)
(-182000 3.4648663e-08 0)
(-182000 0 0)
(-182000 0 0)
(-182000 0 0)
(-182000 3.4675602e-08 0)
(-182000 0 0)
(-182000 0 0)
(-182000 -3.4695833e-08 0)
(-169000.84 0 0)
(-168999.16 3.4709336e-08 0)
(-182000 0 0)
(-182000 0 0)
(-182000 0 0)
(-182000 3.4736369e-08 0)
(-182000 0 0)
(-182000 -6.9499802e-08 0)
(-182000 0 0)
(-182000 3.4763444e-08 0)
(-182000 0 0)
(-182000 0 0)
(-182000 0 0)
(-182000 0 0)
(-182000 -1.0439204e-07 0)
(-182000 0 0)
(-182000 3.4810928e-08 0)
(-182000 0 0)
(-182000 3.4824518e-08 0)
(-182000 0 0)
(-182000 3.4838119e-08 0)
(-182000 0 0)
(-182000 0 0)
(-182000 0 0)
(-182000 0 0)
(-182000 3.4872169e-08 0)
(-182000 0 0)
(-182000 3.4885808e-08 0)
(-182000 0 0)
(-182000 -1.0469837e-07 0)
(-182000 0 0)
(-182000 6.9826234e-08 0)
(-182000 0 0)
(-182000 3.4926787e-08 0)
(-182000 0 0)
(-182000 -6.9880938e-08 0)
(-182000 0 0)
(-182000 0 0)
(-182000 3.4961011e-08 0)
(-182000 0 0)
(-182000 3.4974719e-08 0)
(-182000 0 0)
(-182000 3.4988438e-08 0)
(-182000 0 0)
(-182000 -7.0004336e-08 0)
(-182000 0 0)
(-182000 3.5015909e-08 0)
(-182000 0 0)
(-182000 7.0059321e-08 0)
(-182000 3.5036541e-08 0)
(-182000 0 0)
(-182000 -3.5050308e-08 0)
(-182000 0 0)
(-182000 7.0128172e-08 0)
(-182000 3.507098e-08 0)
(-182000 3.5077876e-08 0)
(-182000 0 0)
(-182000 0 0)
(-182000 0 0)
(-182000 -1.0531646e-07 0)
(-182000 0 0)
(-182000 7.0238618e-08 0)
(-182000 3.5126225e-08 0)
(-182000 0 0)
(-182000 3.5140062e-08 0)
(-182000 0 0)
(-182000 0 0)
(-182000 3.5160841e-08 0)
(-182000 3.5167772e-08 0)
(-182000 0 0)
(-182000 7.0363286e-08 0)
(-182000 0 0)
(-182000 -3.5195525e-08 0)
(-182000 0 0)
(-182000 3.5209418e-08 0)
(-182000 0 0)
(-182000 0 0)
(-182000 3.5230279e-08 0)
(-182000 0 0)
(-182000 7.0488399e-08 0)
(-182000 3.5251165e-08 0)
(-182000 -3.5258131e-08 0)
(-182000 0 0)
(-182000 7.0544147e-08 0)
(-182000 0 0)
(-182000 3.5286027e-08 0)
(-182000 0 0)
(-182000 3.5299992e-08 0)
(-182000 0 0)
(-182000 0 0)
(-182000 3.532096e-08 0)
(-182000 0 0)
(-182000 7.0669905e-08 0)
(-182000 3.5341954e-08 0)
(-182000 -1.0604687e-07 0)
(-182000 0 0)
(-182000 -3.5362971e-08 0)
(-182000 0 0)
(-182000 3.5376997e-08 0)
(-182000 -7.076803e-08 0)
(-182000 0 0)
(-182000 0 0)
(-182000 3.5405083e-08 0)
(-182000 -7.0824221e-08 0)
(-182000 0 0)
(-182000 0 0)
(-182000 0 0)
(-182000 0 0)
(-182000 0 0)
(-182000 -7.0908678e-08 0)
(-182000 0 0)
(-182000 -7.0936875e-08 0)
(-182000 0 0)
(-182000 0 0)
(-169000.86 3.5489607e-08 0)
(-168999.14 0 0)
(-182000 0 0)
(-182000 0 0)
(-182000 -7.1035745e-08 0)
(-182000 0 0)
(-182000 0 0)
(-182000 0 0)
(-182000 0 0)
(-182000 3.5553268e-08 0)
(-182000 -3.5560354e-08 0)
(-182000 0 0)
(-182000 -7.1149075e-08 0)
(-182000 3.5581634e-08 0)
(-182000 0 0)
(-182000 0 0)
(-182000 0 0)
(-182000 0 0)
(-182000 0 0)
(-182000 0 0)
(-169000.87 0 0)
(-181998.27 0 0)
(-195000.87 3.5645624e-08 0)
(-182000 3.5652748e-08 0)
(-182000 0 0)
(-182000 -7.133401e-08 0)
(-169000.87 3.5674139e-08 0)
(-181998.26 0 0)
(-182001.74 0 0)
(-168999.13 0 0)
(-182000 0 0)
(-182000 3.5709847e-08 0)
(-182000 3.5716996e-08 0)
(-182000 0 0)
(-182000 0 0)
(-182000 3.5738465e-08 0)
(-182000 3.5745625e-08 0)
(-182000 0 0)
(-169000.87 0 0)
(-181998.26 3.5767129e-08 0)
(-182001.74 0 0)
(-181998.26 0 0)
(-182001.74 0 0)
(-181998.26 0 0)
(-182001.74 3.5803022e-08 0)
(-181998.26 3.581021e-08 0)
(-182001.74 0 0)
(-181998.26 0 0)
(-182001.74 3.5831789e-08 0)
(-181998.26 3.5838988e-08 0)
(-182001.74 0 0)
(-181998.26 0 0)
(-169002.62 3.5860602e-08 0)
(-181996.51 3.5867816e-08 0)
(-169004.36 -3.5875025e-08 0)
(-207993.02 0 0)
(-130012.23 -7.1778916e-08 0)
(-246979.91 3.5896696e-08 0)
(-91030.575 -3.5903897e-08 0)
(-350951.94 0 0)
(51924.844 0 0)
(-623879.37 3.5925654e-08 0)
(376817.24 3.593275e-08 147998.7)
(-1299707 0 -146952.94)
(1494516.3 0 148058.44)
(-1988302.6 3.59549e-08 -590201.2)
(7759591.5 3.5961363e-08 -589244.1)
(5539327 3.5970401e-08 -4425067.5)
(48797175 0 -8260287.1)
(85345716 -7.198188e-08 -27743567)
(2.9263735e+08 3.6001931e-08 -58888431)
(5.9070934e+08 3.6042527e-08 -1.4320686e+08)
(1.427191e+09 0 -3.0197502e+08)
(2.7367272e+09 0 -5.0222279e+08)
(3.4932324e+09 3.645011e-08 -1.0543622e+09)
(1.8429594e+09 0 79475233)
(-4.1319248e+10 -3.6699221e-08 -2.0619487e+09)
(-1.2318797e+11 -6.3130226e-08 1.1472202e+10)
(-4.2135441e+11 2.1334556e-08 -2.6849151e+10)
(-207996.52 6.8014457e-08 -139039.09)
(-286008.34 6.8027492e-08 0)
(-181998.33 0 0)
(-195000.83 6.8053631e-08 0)
(-182000 0 0)
(-182000 0 0)
(-182000 -6.8092878e-08 0)
(-169000.83 0 0)
(-168999.17 0 0)
(-182000 6.8132172e-08 0)
(-182000 0 0)
(-182000 6.8158392e-08 0)
(-182000 0 0)
(-182000 -6.8184632e-08 0)
(-182000 0 0)
(-182000 -6.8210892e-08 0)
(-182000 0 0)
(-182000 -6.8237172e-08 0)
(-182000 -6.825032e-08 0)
(-182000 0 0)
(-182000 6.8276631e-08 0)
(-182000 -6.8289794e-08 0)
(-169000.84 0 0)
(-168999.16 -6.8316138e-08 0)
(-182000 0 0)
(-182000 -6.83425e-08 0)
(-182000 -6.8355689e-08 0)
(-182000 0 0)
(-182000 -6.8382082e-08 0)
(-182000 0 0)
(-182000 0 0)
(-182000 6.8421707e-08 0)
(-182000 -6.8434927e-08 0)
(-182000 0 0)
(-182000 -6.8461381e-08 0)
(-182000 0 0)
(-182000 -6.8487855e-08 0)
(-182000 0 0)
(-182000 -6.851435e-08 0)
(-182000 0 0)
(-169000.84 6.8540863e-08 0)
(-168999.16 0 0)
(-182000 6.8567402e-08 0)
(-182000 0 0)
(-182000 6.8593958e-08 0)
(-182000 0 0)
(-182000 6.8620535e-08 0)
(-182000 0 0)
(-182000 6.8647133e-08 0)
(-182000 0 0)
(-182000 6.8673751e-08 0)
(-182000 -6.868707e-08 0)
(-182000 0 0)
(-182000 0 0)
(-182000 -6.8727051e-08 0)
(-182000 0 0)
(-182000 -6.8753732e-08 0)
(-182000 6.8767078e-08 0)
(-182000 0 0)
(-182000 -6.8793789e-08 0)
(-182000 0 0)
(-182000 6.8820522e-08 0)
(-182000 0 0)
(-182000 0 0)
(-182000 -6.8860661e-08 0)
(-182000 -6.887405e-08 0)
(-182000 0 0)
(-169000.84 -6.8900845e-08 0)
(-168999.16 0 0)
(-182000 -6.8927664e-08 0)
(-182000 0 0)
(-182000 -6.8954501e-08 0)
(-182000 0 0)
(-182000 -6.8981358e-08 0)
(-182000 6.8994793e-08 0)
(-182000 -6.9008237e-08 0)
(-182000 0 0)
(-182000 -6.9035136e-08 0)
(-182000 0 0)
(-182000 6.9062055e-08 0)
(-182000 0 0)
(-182000 6.9088997e-08 0)
(-182000 -6.9102477e-08 0)
(-182000 0 0)
(-182000 -6.912945e-08 0)
(-182000 0 0)
(-182000 0 0)
(-182000 -6.9169948e-08 0)
(-182000 0 0)
(-182000 0 0)
(-182000 -6.9210497e-08 0)
(-182000 0 0)
(-182000 -6.9237553e-08 0)
(-182000 0 0)
(-182000 -6.9264631e-08 0)
(-182000 0 0)
(-182000 1.3858346e-07 0)
(-182000 0 0)
(-182000 -6.9318853e-08 0)
(-182000 0 0)
(-182000 -6.9345996e-08 0)
(-182000 0 0)
(-182000 6.937316e-08 0)
(-182000 0 0)
(-182000 -6.9400347e-08 0)
(-182000 0 0)
(-182000 -6.9427553e-08 0)
(-182000 0 0)
(-182000 -6.9454781e-08 0)
(-182000 0 0)
(-182000 -6.9482031e-08 0)
(-182000 1.3899132e-07 0)
(-182000 -6.9509302e-08 0)
(-182000 0 0)
(-182000 -6.9536594e-08 0)
(-182000 -6.9550246e-08 0)
(-182000 0 0)
(-182000 -6.9577573e-08 0)
(-182000 6.9591241e-08 0)
(-182000 0 0)
(-182000 -6.9618598e-08 0)
(-182000 0 0)
(-182000 0 0)
(-182000 -6.9659675e-08 0)
(-182000 6.9673376e-08 0)
(-182000 -6.9687086e-08 0)
(-182000 1.394016e-07 0)
(-182000 -6.9714518e-08 0)
(-182000 0 0)
(-182000 0 0)
(-182000 0 0)
(-182000 -6.9769446e-08 0)
(-182000 0 0)
(-182000 0 0)
(-182000 0 0)
(-182000 -6.9824462e-08 0)
(-182000 0 0)
(-182000 -6.9852003e-08 0)
(-182000 0 0)
(-182000 0 0)
(-182000 0 0)
(-182000 -6.990715e-08 0)
(-182000 0 0)
(-182000 -6.9934758e-08 0)
(-182000 0 0)
(-182000 -6.9962386e-08 0)
(-182000 -6.9976206e-08 0)
(-182000 0 0)
(-182000 0 0)
(-182000 0 0)
(-182000 -7.003155e-08 0)
(-182000 0 0)
(-182000 0 0)
(-182000 -7.0073117e-08 0)
(-182000 -7.0086981e-08 0)
(-182000 0 0)
(-182000 -7.0114732e-08 0)
(-182000 0 0)
(-182000 -7.0142502e-08 0)
(-182000 0 0)
(-182000 0 0)
(-182000 1.403684e-07 0)
(-182000 -7.019811e-08 0)
(-182000 7.0212024e-08 0)
(-182000 -7.0225947e-08 0)
(-182000 0 0)
(-182000 7.0253806e-08 0)
(-182000 0 0)
(-182000 0 0)
(-182000 0 0)
(-182000 0 0)
(-182000 7.032355e-08 0)
(-182000 0 0)
(-182000 -7.0351487e-08 0)
(-182000 -7.0365461e-08 0)
(-182000 0 0)
(-182000 0 0)
(-182000 0 0)
(-182000 0 0)
(-182000 7.043543e-08 0)
(-182000 0 0)
(-169000.86 0 0)
(-168999.14 0 0)
(-182000 -7.0491505e-08 0)
(-182000 0 0)
(-182000 0 0)
(-182000 0 0)
(-182000 -7.0547669e-08 0)
(-182000 0 0)
(-182000 -7.0575784e-08 0)
(-182000 0 0)
(-182000 0 0)
(-182000 0 0)
(-182000 0 0)
(-182000 0 0)
(-182000 0 0)
(-182000 0 0)
(-182000 7.0688472e-08 0)
(-182000 0 0)
(-182000 0 0)
(-182000 0 0)
(-169000.87 7.074495e-08 0)
(-181998.27 0 0)
(-195000.87 0 0)
(-182000 -7.0787366e-08 0)
(-182000 0 0)
(-182000 7.0815673e-08 0)
(-169000.87 0 0)
(-181998.26 0 0)
(-182001.74 -7.0858176e-08 0)
(-168999.13 7.087236e-08 0)
(-182000 0 0)
(-182000 0 0)
(-182000 0 0)
(-182000 7.0929133e-08 0)
(-182000 0 0)
(-182000 -7.0957554e-08 0)
(-182000 -7.0971771e-08 0)
(-182000 7.0985997e-08 0)
(-169000.87 0 0)
(-181998.26 0 0)
(-182001.74 0 0)
(-181998.26 -7.1042955e-08 0)
(-182001.74 0 0)
(-181998.26 -7.1071467e-08 0)
(-182001.74 0 0)
(-181998.26 0 0)
(-182001.74 0 0)
(-181998.26 -7.112856e-08 0)
(-182001.74 0 0)
(-181998.26 -7.1157141e-08 0)
(-182001.74 0 0)
(-181998.26 -7.1185745e-08 0)
(-169002.62 0 0)
(-181996.51 0 0)
(-169004.36 0 0)
(-207993.02 0 0)
(-130012.22 0 0)
(-246979.91 -7.1271716e-08 0)
(-91030.574 0 0)
(-350951.94 7.1300435e-08 0)
(51935.177 0 145796.86)
(-623879.38 0 0)
(363823.24 -7.1343304e-08 145855.69)
(-1299708.7 0 -146952.94)
(1481524 -7.1371781e-08 145914.57)
(-2027334.5 0 -877800.66)
(7551567.5 0 -1025019.9)
(5123142.9 0 -6151361.2)
(47587849 7.1430142e-08 -12012074)
(82679632 7.1458836e-08 -37948722)
(2.8668106e+08 0 -81775690)
(5.7821095e+08 -7.1557569e-08 -1.9304995e+08)
(1.4093434e+09 7.1649708e-08 -4.0422187e+08)
(2.7002327e+09 0 -6.4234571e+08)
(3.5298909e+09 0 -1.3057006e+09)
(1.8107437e+09 0 4.8002389e+08)
(-4.0695624e+10 7.2822496e-08 -1.8225813e+09)
(-1.2445332e+11 6.26715e-08 1.7672504e+10)
(-4.2064054e+11 0 -3.5441879e+10)
(-194997.36 -1.3504048e-07 -139039.09)
(-273007.5 -6.7533182e-08 0)
(-181998.33 6.7546157e-08 0)
(-195000.83 -1.3511826e-07 0)
(-182000 0 0)
(-182000 6.75851e-08 0)
(-182000 -6.7598092e-08 0)
(-169000.83 6.7611089e-08 0)
(-168999.17 0 0)
(-182000 -1.352742e-07 0)
(-182000 0 0)
(-182000 -6.766313e-08 0)
(-182000 0 0)
(-182000 6.7689179e-08 0)
(-182000 0 0)
(-182000 6.7715249e-08 0)
(-182000 0 0)
(-182000 6.7741338e-08 0)
(-182000 6.775439e-08 0)
(-182000 -6.7767448e-08 0)
(-182000 0 0)
(-182000 6.7793577e-08 0)
(-169000.84 -6.780665e-08 0)
(-168999.16 6.781973e-08 0)
(-182000 -6.7832813e-08 0)
(-182000 6.7845901e-08 0)
(-182000 6.7858994e-08 0)
(-182000 -6.787209e-08 0)
(-182000 1.3577039e-07 0)
(-182000 0 0)
(-182000 6.7911415e-08 0)
(-182000 -1.3584906e-07 0)
(-182000 6.7937657e-08 0)
(-182000 -6.7950783e-08 0)
(-182000 1.3592784e-07 0)
(-182000 0 0)
(-182000 1.359804e-07 0)
(-182000 -6.8003346e-08 0)
(-182000 6.8016502e-08 0)
(-182000 6.802966e-08 0)
(-169000.84 -1.3608564e-07 0)
(-168999.16 0 0)
(-182000 -1.3613834e-07 0)
(-182000 6.8082349e-08 0)
(-182000 -6.8095532e-08 0)
(-182000 6.8108723e-08 0)
(-182000 -1.3624383e-07 0)
(-182000 6.8135117e-08 0)
(-182000 -6.814832e-08 0)
(-182000 6.8161531e-08 0)
(-182000 -6.8174745e-08 0)
(-182000 1.3637593e-07 0)
(-182000 6.8201192e-08 0)
(-182000 0 0)
(-182000 1.3645532e-07 0)
(-182000 -6.8240897e-08 0)
(-182000 1.3650829e-07 0)
(-182000 -6.8267393e-08 0)
(-182000 6.8280651e-08 0)
(-182000 0 0)
(-182000 0 0)
(-182000 -1.366409e-07 0)
(-182000 6.8333727e-08 0)
(-182000 -1.3669401e-07 0)
(-182000 1.3672059e-07 0)
(-182000 6.8373589e-08 0)
(-182000 -6.8386884e-08 0)
(-169000.84 1.3680038e-07 0)
(-168999.16 -6.8413498e-08 0)
(-182000 6.8426813e-08 0)
(-182000 -6.8440129e-08 0)
(-182000 1.3690691e-07 0)
(-182000 -1.3693356e-07 0)
(-182000 1.3696023e-07 0)
(-182000 -6.8493454e-08 0)
(-182000 6.85068e-08 0)
(-182000 -6.8520148e-08 0)
(-182000 1.3706701e-07 0)
(-182000 0 0)
(-182000 -1.3712045e-07 0)
(-182000 6.8573599e-08 0)
(-182000 -6.8586973e-08 0)
(-182000 1.3720071e-07 0)
(-182000 -6.861374e-08 0)
(-182000 6.8627133e-08 0)
(-182000 -6.8640527e-08 0)
(-182000 6.8653931e-08 0)
(-182000 -6.8667336e-08 0)
(-182000 6.868075e-08 0)
(-182000 0 0)
(-182000 6.870759e-08 0)
(-182000 6.8721018e-08 0)
(-182000 0 0)
(-182000 6.8747889e-08 0)
(-182000 -6.8761331e-08 0)
(-182000 6.8774782e-08 0)
(-182000 -6.8788235e-08 0)
(-182000 0 0)
(-182000 0 0)
(-182000 0 0)
(-182000 0 0)
(-182000 6.8855587e-08 0)
(-182000 -6.8869071e-08 0)
(-182000 6.8882564e-08 0)
(-182000 1.3779212e-07 0)
(-182000 -6.890956e-08 0)
(-182000 6.8923069e-08 0)
(-182000 -6.893658e-08 0)
(-182000 1.379002e-07 0)
(-182000 -1.3792724e-07 0)
(-182000 1.379543e-07 0)
(-182000 -6.8990683e-08 0)
(-182000 6.9004224e-08 0)
(-182000 -6.9017766e-08 0)
(-182000 6.9031318e-08 0)
(-182000 0 0)
(-182000 6.9058433e-08 0)
(-182000 1.38144e-07 0)
(-182000 -1.3817114e-07 0)
(-182000 6.9099146e-08 0)
(-182000 0 0)
(-182000 0 0)
(-182000 -6.9139905e-08 0)
(-182000 1.3830701e-07 0)
(-182000 -1.3833421e-07 0)
(-182000 1.3836143e-07 0)
(-182000 -6.9194328e-08 0)
(-182000 6.9207949e-08 0)
(-182000 -6.9221572e-08 0)
(-182000 6.9235204e-08 0)
(-182000 0 0)
(-182000 0 0)
(-182000 6.9276126e-08 0)
(-182000 -6.9289775e-08 0)
(-182000 6.9303434e-08 0)
(-182000 0 0)
(-182000 0 0)
(-182000 0 0)
(-182000 6.9358115e-08 0)
(-182000 -6.9371797e-08 0)
(-182000 6.9385488e-08 0)
(-182000 0 0)
(-182000 6.9412883e-08 0)
(-182000 6.9426589e-08 0)
(-182000 -6.9440298e-08 0)
(-182000 1.3890803e-07 0)
(-182000 -6.9467736e-08 0)
(-182000 6.9481465e-08 0)
(-182000 -6.9495196e-08 0)
(-182000 6.9508936e-08 0)
(-182000 0 0)
(-182000 0 0)
(-182000 -6.9550181e-08 0)
(-182000 1.3912788e-07 0)
(-182000 0 0)
(-182000 0 0)
(-182000 1.3921051e-07 0)
(-182000 -6.9619035e-08 0)
(-182000 6.9632824e-08 0)
(-182000 -6.9646614e-08 0)
(-182000 6.9660414e-08 0)
(-182000 -1.3934843e-07 0)
(-182000 1.3937605e-07 0)
(-182000 -6.970184e-08 0)
(-182000 6.9715662e-08 0)
(-182000 -6.9729485e-08 0)
(-182000 0 0)
(-182000 0 0)
(-182000 6.9770997e-08 0)
(-182000 6.9784844e-08 0)
(-182000 6.9798695e-08 0)
(-182000 0 0)
(-182000 6.9826418e-08 0)
(-182000 6.9840289e-08 0)
(-182000 1.3970833e-07 0)
(-182000 6.9868045e-08 0)
(-182000 6.9881929e-08 0)
(-182000 6.9895823e-08 0)
(-182000 1.3981944e-07 0)
(-182000 0 0)
(-182000 0 0)
(-169000.86 6.9951445e-08 0)
(-168999.14 0 0)
(-182000 1.3995858e-07 0)
(-182000 6.9993223e-08 0)
(-182000 7.0007157e-08 0)
(-182000 7.00211e-08 0)
(-182000 1.4007009e-07 0)
(-182000 0 0)
(-182000 1.4012591e-07 0)
(-182000 7.0076922e-08 0)
(-182000 1.4018178e-07 0)
(-182000 0 0)
(-182000 1.4023769e-07 0)
(-182000 7.0132833e-08 0)
(-182000 0 0)
(-182000 7.0160821e-08 0)
(-182000 -7.0174826e-08 0)
(-182000 7.0188832e-08 0)
(-182000 7.0202848e-08 0)
(-182000 0 0)
(-169000.87 0 0)
(-181998.27 7.0244926e-08 0)
(-195000.87 7.0258961e-08 0)
(-182000 7.0273001e-08 0)
(-182000 7.0287051e-08 0)
(-182000 7.0301103e-08 0)
(-169000.87 0 0)
(-181998.26 7.0329232e-08 0)
(-182001.74 1.4068659e-07 0)
(-168999.13 -7.0357378e-08 0)
(-182000 7.0371458e-08 0)
(-182000 7.0385547e-08 0)
(-182000 0 0)
(-182000 0 0)
(-182000 7.0427841e-08 0)
(-182000 7.0441953e-08 0)
(-182000 1.4091213e-07 0)
(-182000 0 0)
(-169000.87 0 0)
(-181998.26 7.0498452e-08 0)
(-182001.74 7.0512587e-08 0)
(-181998.26 7.0526733e-08 0)
(-182001.74 7.0540881e-08 0)
(-181998.26 1.4111008e-07 0)
(-182001.74 0 0)
(-181998.26 7.0583365e-08 0)
(-182001.74 7.0597536e-08 0)
(-181998.26 1.4122343e-07 0)
(-182001.74 0 0)
(-181998.26 1.4128018e-07 0)
(-182001.74 0 0)
(-181998.26 1.4133697e-07 0)
(-169002.62 7.0682691e-08 0)
(-181996.51 0 0)
(-169004.36 1.4142224e-07 0)
(-207993.02 7.0725355e-08 0)
(-130012.22 7.0739566e-08 0)
(-246979.91 1.4150766e-07 0)
(-91030.574 1.4153605e-07 0)
(-337952.82 0 0)
(51936.926 0 145796.87)
(-623894 7.081091e-08 -144766.65)
(363825 1.416498e-07 145855.7)
(-1299715.6 0 -144825.08)
(1429529.3 1.4170634e-07 145914.57)
(-2092374.8 0 -1163310.3)
(7291544 7.0881262e-08 -1308458)
(4563899 7.0898906e-08 -7852333.7)
(45975416 -1.7135773e-13 -15561807)
(79155159 0 -48587292)
(2.7887804e+08 7.0958576e-08 -1.0403398e+08)
(5.6210977e+08 1.4207253e-07 -2.436234e+08)
(1.3873451e+09 -7.1129077e-08 -5.0467456e+08)
(2.656817e+09 7.1402735e-08 -7.8622746e+08)
(3.5926675e+09 7.1801739e-08 -1.5601621e+09)
(1.7973956e+09 0 8.9029902e+08)
(-3.9796287e+10 -1.8130805e-11 -1.6465443e+09)
(-1.2616356e+11 6.267597e-08 2.4218137e+10)
(-4.1978468e+11 0 -4.498457e+10)
(-194987.5 6.7029615e-08 0)
(-273007.5 0 0)
(-181998.33 -6.7055344e-08 0)
(-195000.83 6.7068224e-08 0)
(-182000 0 0)
(-182000 0 0)
(-182000 6.7106902e-08 0)
(-169000.83 1.3423961e-07 0)
(-168999.17 0 0)
(-182000 6.7145628e-08 0)
(-182000 1.3431709e-07 0)
(-182000 0 0)
(-182000 0 0)
(-182000 1.3439465e-07 0)
(-182000 0 0)
(-182000 1.3444641e-07 0)
(-182000 0 0)
(-182000 0 0)