/*--------------------------------*- C++ -*----------------------------------*\
  =========                 |
  \\      /  F ield         | OpenFOAM: The Open Source CFD Toolbox
   \\    /   O peration     | Website:  https://openfoam.org
    \\  /    A nd           | Version:  6
     \\/     M anipulation  |
\*---------------------------------------------------------------------------*/
FoamFile
{
    version     2.0;
    format      ascii;
    class       volVectorField;
    location    "10000";
    object      U;
}
// * * * * * * * * * * * * * * * * * * * * * * * * * * * * * * * * * * * * * //

dimensions      [0 1 -1 0 0 0 0];

internalField   nonuniform List<vector> 
6760
(
(1.4208133 0 0.0071031912)
(1.2658213 0 0.0070823427)
(1.1115647 -5.3216964e-17 0.00538157)
(1.0292493 0 0.0030278167)
(0.97896759 -5.3196639e-17 0.0016737955)
(0.95567868 0 0.00081909402)
(0.94308505 0 0.00040554757)
(0.93783444 0 0.00018532466)
(0.93497186 -5.3155991e-17 8.9849364e-05)
(0.93387223 0 4.2198438e-05)
(0.933128 0 2.4378109e-05)
(0.93279434 -5.3125505e-17 1.5380722e-05)
(0.93245621 0 1.2956118e-05)
(0.93222193 -5.310518e-17 1.1437691e-05)
(0.9319551 0 1.1381041e-05)
(0.93172018 -5.3084856e-17 1.1126703e-05)
(0.93146645 0 1.124963e-05)
(0.93122472 0 1.1189581e-05)
(0.93097439 -5.3054368e-17 1.1254686e-05)
(0.93072913 0 1.1229505e-05)
(0.93048019 -5.3034043e-17 1.1254499e-05)
(0.93023349 0 1.1240442e-05)
(0.92998524 -5.3013718e-17 1.1247647e-05)
(0.92973802 0 1.1238311e-05)
(0.92949015 0 1.1237803e-05)
(0.92924282 -5.298323e-17 1.1230203e-05)
(0.92899521 0 1.1226823e-05)
(0.92874791 -5.2962903e-17 1.1220336e-05)
(0.92850051 0 1.1217138e-05)
(0.92825325 -5.2942577e-17 1.1212426e-05)
(0.92800596 0 1.1210906e-05)
(0.92775868 -5.2922251e-17 1.1208172e-05)
(0.9275114 0 1.1207826e-05)
(0.92726404 0 1.1205952e-05)
(0.92701676 -5.2891763e-17 1.1205843e-05)
(0.92676931 0 1.1203155e-05)
(0.92652206 -5.2871436e-17 1.1203722e-05)
(0.92627446 0 1.1200244e-05)
(0.9260273 -5.2851109e-17 1.1203202e-05)
(0.92577944 0 1.1202146e-05)
(0.9255323 -5.2830781e-17 1.1205547e-05)
(0.92528409 0 1.121101e-05)
(0.92503675 0 1.1207237e-05)
(0.92478843 -5.2800291e-17 1.1220157e-05)
(0.92454063 0 1.1208046e-05)
(0.92429254 -5.2779964e-17 1.1226847e-05)
(0.92404404 0 1.1219729e-05)
(0.92379595 -5.2759636e-17 1.1240783e-05)
(0.92354661 0 1.1247016e-05)
(0.92329801 0 1.1262547e-05)
(0.92304799 -5.2729142e-17 1.1271686e-05)
(0.92279882 0 1.1275033e-05)
(0.9225486 -5.2708816e-17 1.1275896e-05)
(0.92229928 0 1.1269212e-05)
(0.92204923 -5.2688487e-17 1.1266548e-05)
(0.92179998 0 1.1257891e-05)
(0.92155014 -5.2668158e-17 1.1262908e-05)
(0.92130067 0 1.1255717e-05)
(0.92105095 0 1.1266662e-05)
(0.92080102 -5.2637664e-17 1.1254899e-05)
(0.92055161 0 1.1259808e-05)
(0.92030144 -5.2617335e-17 1.1237029e-05)
(0.92005289 0 1.1238043e-05)
(0.91980258 -5.2597005e-17 1.1213023e-05)
(0.91955511 0 1.1227959e-05)
(0.91930388 -5.2576677e-17 1.12275e-05)
(0.91905664 0 1.1254015e-05)
(0.91880368 0 1.1301336e-05)
(0.9185549 -5.2546181e-17 1.1300633e-05)
(0.91830105 0 1.1391708e-05)
(0.91804911 -5.2525851e-17 1.1351508e-05)
(0.9177959 0 1.1462067e-05)
(0.91753999 -5.2505521e-17 1.1438058e-05)
(0.91728681 0 1.1535045e-05)
(0.9170273 -5.2485191e-17 1.1559348e-05)
(0.91677236 0 1.1604624e-05)
(0.91651114 0 1.1631116e-05)
(0.91625468 -5.2454696e-17 1.1612001e-05)
(0.91599428 0 1.1604175e-05)
(0.91573809 -5.2434364e-17 1.1557647e-05)
(0.91547948 0 1.1549135e-05)
(0.91522384 -5.2414033e-17 1.1524425e-05)
(0.91496586 0 1.1560758e-05)
(0.91470898 0 1.1553723e-05)
(0.91445073 -5.2383537e-17 1.1608199e-05)
(0.91419185 0 1.1549978e-05)
(0.91393559 -5.2363205e-17 1.1554139e-05)
(0.91367682 0 1.1392205e-05)
(0.91342736 -5.2342874e-17 1.1369307e-05)
(0.91316947 0 1.1176848e-05)
(0.91292886 -5.2322542e-17 1.1253304e-05)
(0.91266653 0 1.1230767e-05)
(0.9124286 0 1.1408415e-05)
(0.91215562 -5.2292044e-17 1.1707825e-05)
(0.91190814 0 1.1730426e-05)
(0.9116292 -5.2271711e-17 1.229275e-05)
(0.91136231 0 1.2037116e-05)
(0.91108843 -5.2251378e-17 1.2662258e-05)
(0.9107997 0 1.2441911e-05)
(0.91052995 -5.2231046e-17 1.2901214e-05)
(0.91022535 0 1.2933718e-05)
(0.90995049 0 1.3024314e-05)
(0.90964424 0 1.3094719e-05)
(0.90936447 0 1.2831777e-05)
(0.90907059 -5.2180213e-17 1.277481e-05)
(0.90879283 0 1.247154e-05)
(0.90851233 -5.2159879e-17 1.2421696e-05)
(0.90823692 0 1.2374801e-05)
(0.90795813 0 1.2473099e-05)
(0.90767875 0 1.2596499e-05)
(0.90739387 0 1.2726033e-05)
(0.9071093 0 1.2565418e-05)
(0.90683073 0 1.247255e-05)
(0.90655069 0 1.1680268e-05)
(0.90630705 0 1.1480628e-05)
(0.90603495 -5.2068375e-17 1.041646e-05)
(0.90584095 -5.2058209e-17 1.0713486e-05)
(0.90555077 0 1.0447133e-05)
(0.90537711 0 1.1292216e-05)
(0.90503655 0 1.2623643e-05)
(0.90482159 0 1.2731707e-05)
(0.90445301 -5.2007372e-17 1.5320075e-05)
(0.90414953 0 1.3950291e-05)
(0.90381214 0 1.673474e-05)
(0.90341344 -5.1976868e-17 1.53691e-05)
(0.90310983 0 1.7226936e-05)
(0.90265088 0 1.7053157e-05)
(0.90233711 -5.1946367e-17 1.709973e-05)
(0.90188885 0 1.7261817e-05)
(0.90155844 -5.1926031e-17 1.5749654e-05)
(0.90118338 0 1.551221e-05)
(0.90085889 0 1.4062115e-05)
(0.90055226 0 1.3793371e-05)
(0.90023603 -5.1885358e-17 1.3752394e-05)
(0.89993576 -5.1875191e-17 1.3774773e-05)
(0.89961391 0 1.4683546e-05)
(0.89927798 -5.1854855e-17 1.4707992e-05)
(0.89895048 0 1.459512e-05)
(0.89862333 -5.1834518e-17 1.4025528e-05)
(0.89831733 0 1.1350903e-05)
(0.89811365 0 1.0589583e-05)
(0.89783475 -5.1804012e-17 6.581353e-06)
(0.89782189 -5.1793845e-17 7.6299976e-06)
(0.89747635 -5.1783676e-17 6.3138827e-06)
(0.89755531 0 9.2990813e-06)
(0.89702848 -5.1763339e-17 1.3666217e-05)
(0.89697936 0 1.36981e-05)
(0.89636518 -5.1743002e-17 2.2397621e-05)
(0.89602661 0 1.6505317e-05)
(0.89556504 0 2.5703917e-05)
(0.8949235 -5.1712495e-17 1.9620411e-05)
(0.89463199 0 2.5602137e-05)
(0.89381008 -5.1692157e-17 2.4429004e-05)
(0.89350069 0 2.4402069e-05)
(0.89273386 0 2.5454551e-05)
(0.89233532 -5.1661651e-17 2.0556789e-05)
(0.89181961 -5.1651482e-17 2.080302e-05)
(0.89138091 0 1.668996e-05)
(0.89107885 0 1.6067293e-05)
(0.89063606 -5.1620973e-17 1.7030495e-05)
(0.89032887 -5.1610806e-17 1.5614028e-05)
(0.88990873 -5.1600635e-17 2.016421e-05)
(0.88944015 0 1.8366496e-05)
(0.88906003 -5.1580296e-17 2.0743984e-05)
(0.88852024 0 1.8646682e-05)
(0.88820402 0 1.3893179e-05)
(0.887902 0 1.1750887e-05)
(0.88765784 0 1.9034363e-06)
(0.88782603 -5.152945e-17 3.3118515e-06)
(0.88747918 -5.151928e-17 -1.8766697e-06)
(0.88794312 -5.150911e-17 4.3898065e-06)
(0.88722537 0 1.1963559e-05)
(0.88747718 -5.148877e-17 1.3575765e-05)
(0.88652174 -5.1478601e-17 3.1763237e-05)
(0.88615079 0 2.1362543e-05)
(0.88544384 -5.1458261e-17 4.125869e-05)
(0.88439407 0 2.9019834e-05)
(0.8840331 -5.1437921e-17 4.1220795e-05)
(0.88260905 0 3.6986415e-05)
(0.88229827 -5.1417581e-17 3.4425495e-05)
(0.88109576 0 3.3184236e-05)
(0.88075996 -5.1397241e-17 1.8196989e-05)
(0.88029288 -5.1387071e-17 1.6028636e-05)
(0.88000037 0 2.1280762e-06)
(0.88021939 -5.1366731e-17 1.1752467e-06)
(0.87990101 0 2.697503e-07)
(0.88025508 -5.134639e-17 -1.8497702e-06)
(0.87992071 0 9.7752171e-06)
(0.87988217 -5.132605e-17 4.1890154e-06)
(0.87965902 0 1.7342447e-05)
(0.87916555 -5.1305708e-17 1.2469367e-05)
(0.87903224 0 1.3322299e-05)
(0.87861561 0 1.2708692e-05)
(0.87840196 -5.1275195e-17 -2.6369698e-06)
(0.87878635 -5.1265026e-17 4.090023e-06)
(0.87813808 -5.1254854e-17 -1.035753e-05)
(0.87935036 0 3.3714506e-06)
(0.87784167 -5.1234512e-17 1.3602078e-05)
(0.87892369 0 1.318872e-05)
(0.87700911 -5.121417e-17 5.1293373e-05)
(0.87687462 0 2.0547018e-05)
(0.87578161 0 6.8849668e-05)
(0.8740337 -5.1183657e-17 3.511852e-05)
(0.87392331 -5.1173486e-17 6.9391136e-05)
(0.87109786 -5.1163315e-17 5.9234094e-05)
(0.87106244 0 5.8796321e-05)
(0.86855429 -5.1142972e-17 5.8398178e-05)
(0.86830692 -5.1132802e-17 2.6324867e-05)
(0.86742358 -5.1122631e-17 2.2088737e-05)
(0.86721649 -5.1112458e-17 -1.0135486e-05)
(0.8679469 0 -1.4116499e-05)
(0.86775365 -5.1092115e-17 -1.8501966e-05)
(0.86889801 -5.1081946e-17 -2.491746e-05)
(0.86875065 -5.1071772e-17 -2.0768382e-06)
(0.86914337 0 -1.4091326e-05)
(0.86924295 -5.1051429e-17 1.316693e-05)
(0.86869075 -5.1041259e-17 4.2852417e-06)
(0.86892203 0 8.6782702e-06)
(0.86840965 -5.1020916e-17 8.659518e-06)
(0.86842162 0 -1.8180815e-05)
(0.869342 -5.1000572e-17 -5.9647842e-06)
(0.86854943 -5.0990399e-17 -3.3790621e-05)
(0.87105754 -5.0980227e-17 -9.8684659e-06)
(0.86874243 0 4.4479184e-06)
(0.87119687 -5.0959884e-17 4.4251768e-06)
(0.86812297 -5.0949709e-17 6.679185e-05)
(0.86865084 -5.093954e-17 1.4750154e-05)
(0.86691912 -5.0929365e-17 9.2381912e-05)
(0.86495688 0 3.9415797e-05)
(0.86462871 -5.0909021e-17 8.5086491e-05)
(0.86149347 0 8.9332517e-05)
(0.86019012 -5.0888676e-17 5.3143884e-05)
(0.8593855 0 0.00011395611)
(0.85466077 -5.0868332e-17 -3.464462e-05)
(0.8613273 -5.0858163e-17 0.0001088055)
(0.84915171 0 -0.00018556854)
(0.87056891 -5.0837821e-17 0.00016588274)
(0.84034259 0 -0.00043775631)
(0.89250729 -5.0817483e-17 0.00042719183)
(0.81779382 -5.0807278e-17 -0.00091431518)
(0.93910334 0 0.0015079566)
(0.74121079 -5.0786902e-17 -0.00086145875)
(0.99009322 -5.077685e-17 0.0077228792)
(0.36768596 -5.0766477e-17 0.0081323313)
(0.64454219 0 0.043538889)
(-1.6825646 -5.0745932e-17 0.072066572)
(-2.5994735 -5.0736553e-17 0.20689655)
(-11.326644 -5.0725271e-17 0.32588483)
(-17.411728 0 0.62006059)
(-40.178102 0 0.38470021)
(-34.570294 -5.070609e-17 -1.1223154)
(10.92198 -5.0701047e-17 -9.2835857)
(395.16046 0 -35.743991)
(1658.2665 0 -117.12766)
(5802.445 -5.0967635e-17 -340.58827)
(17375.753 -5.1242304e-17 -889.44392)
(46859.439 -5.1528976e-17 -2178.0733)
(118030.23 0 -4352.3848)
(247800.42 0 -7624.0764)
(470903.21 -3.006509e-17 -4869.1666)
(1.4169802 -1.9450318e-16 0.02133509)
(1.2622645 0 0.02130226)
(1.108601 9.7760276e-17 0.016153573)
(1.0266206 0 0.0090977801)
(0.97656405 -9.7723222e-17 0.0050245106)
(0.95337519 0 0.0024613727)
(0.94083404 0 0.0012174278)
(0.93560469 0 0.00055718005)
(0.9327524 9.764912e-17 0.00026968559)
(0.93165668 1.9526119e-16 0.00012700283)
(0.93091453 0 7.317289e-05)
(0.93058179 9.7593542e-17 4.6330407e-05)
(0.93024443 0 3.8919602e-05)
(0.93001071 -9.7556488e-17 3.4437217e-05)
(0.92974449 0 3.4212904e-05)
(0.92951014 9.7519434e-17 3.3482896e-05)
(0.929257 0 3.3829081e-05)
(0.92901586 0 3.3663365e-05)
(0.92876613 -9.7463852e-17 3.3849276e-05)
(0.92852147 0 3.3779887e-05)
(0.92827313 9.7426796e-17 3.3850834e-05)
(0.92802703 0 3.3811107e-05)
(0.92777937 2.9216922e-16 3.3830881e-05)
(0.92753275 0 3.3803783e-05)
(0.92728548 0 3.3801684e-05)
(0.92703874 9.7334154e-17 3.3779148e-05)
(0.92679174 0 3.3769048e-05)
(0.92654504 -9.7297095e-17 3.3749954e-05)
(0.92629823 0 3.3740347e-05)
(0.92605157 9.7260036e-17 3.3726618e-05)
(0.92580488 0 3.3721741e-05)
(0.92555819 -9.7222977e-17 3.371381e-05)
(0.92531152 0 3.3712389e-05)
(0.92506476 0 3.3706799e-05)
(0.92481808 9.7167389e-17 3.3705831e-05)
(0.92457122 0 3.3697782e-05)
(0.92432457 9.7130328e-17 3.3698886e-05)
(0.92407757 0 3.3688855e-05)
(0.92383101 9.7093266e-17 3.369664e-05)
(0.92358373 0 3.3694314e-05)
(0.9233372 -9.7056201e-17 3.3702867e-05)
(0.92308957 0 3.3719586e-05)
(0.92284284 0 3.370756e-05)
(0.92259511 9.7000609e-17 3.374407e-05)
(0.92234791 -1.9396415e-16 3.3710263e-05)
(0.92210041 9.6963544e-17 3.3761303e-05)
(0.9218525 0 3.3745507e-05)
(0.921605 9.692648e-17 3.3801766e-05)
(0.92135625 0 3.3824722e-05)
(0.92110824 0 3.3865232e-05)
(0.92085881 9.6870879e-17 3.3893535e-05)
(0.92061023 0 3.3900171e-05)
(0.92036059 9.6833815e-17 3.3902187e-05)
(0.92011186 -1.9363056e-16 3.3881264e-05)
(0.9198624 9.6796747e-17 3.3873332e-05)
(0.91961374 -1.9355642e-16 3.3848116e-05)
(0.91936449 9.6759679e-17 3.386277e-05)
(0.91911561 0 3.384294e-05)
(0.91886647 0 3.3872654e-05)
(0.91861712 -9.6704074e-17 3.3840018e-05)
(0.91836831 0 3.3850002e-05)
(0.91811872 9.6667004e-17 3.3786042e-05)
(0.91787077 0 3.3784521e-05)
(0.91762104 -9.6629934e-17 3.3716092e-05)
(0.91737417 0 3.3756023e-05)
(0.91712351 9.6592865e-17 3.3762622e-05)
(0.91687687 -1.9314865e-16 3.3834906e-05)
(0.91662448 0 3.397976e-05)
(0.9163763 -9.6537255e-17 3.3973956e-05)
(0.91612302 0 3.4235557e-05)
(0.91587166 9.6500183e-17 3.4127052e-05)
(0.91561902 0 3.4430509e-05)
(0.91536367 -9.6463109e-17 3.4384691e-05)
(0.91511108 0 3.4641917e-05)
(0.91485211 9.6426035e-17 3.4734916e-05)
(0.91459774 0 3.484622e-05)
(0.91433707 -1.9277792e-16 3.4929225e-05)
(0.91408117 9.6370426e-17 3.4863772e-05)
(0.91382132 0 3.4838204e-05)
(0.9135657 9.6333347e-17 3.4703021e-05)
(0.91330764 0 3.4677846e-05)
(0.91305257 -9.6296271e-17 3.4611996e-05)
(0.91279516 0 3.471824e-05)
(0.91253884 -1.9251839e-16 3.4704412e-05)
(0.91228114 9.6240658e-17 3.4853743e-05)
(0.91202282 -1.9244423e-16 3.4689045e-05)
(0.91176712 9.620358e-17 3.4679697e-05)
(0.91150889 -1.9237008e-16 3.4217318e-05)
(0.91126003 9.6166501e-17 3.4127805e-05)
(0.91100269 0 3.359642e-05)
(0.91076271 9.6129422e-17 3.3799095e-05)
(0.91050091 0 3.3789385e-05)
(0.91026365 -1.9218468e-16 3.4279028e-05)
(0.90999115 9.6073801e-17 3.5201749e-05)
(0.9097443 -1.9211052e-16 3.5243541e-05)
(0.90946582 9.603672e-17 3.6863759e-05)
(0.90919947 -1.9203635e-16 3.6163652e-05)
(0.90892611 9.5999639e-17 3.7873503e-05)
(0.90863781 0 3.7370858e-05)
(0.90836863 9.5962556e-17 3.8555632e-05)
(0.9080644 -1.9188802e-16 3.878098e-05)
(0.90779008 0 3.8928659e-05)
(0.9074842 0 3.9166762e-05)
(0.90720493 0 3.8364236e-05)
(0.90691149 9.5869847e-17 3.8176222e-05)
(0.90663424 -1.9170261e-16 3.7325281e-05)
(0.90635424 9.5832763e-17 3.7166124e-05)
(0.90607934 -1.9162844e-16 3.7080763e-05)
(0.90580107 0 3.7367454e-05)
(0.90552219 -1.9155426e-16 3.7746609e-05)
(0.90523777 0 3.8106778e-05)
(0.90495368 0 3.7620357e-05)
(0.90467557 0 3.7288686e-05)
(0.90439601 -1.9140592e-16 3.4981935e-05)
(0.90415296 0 3.4315613e-05)
(0.90388136 9.5665871e-17 3.1335859e-05)
(0.90368822 2.8694199e-16 3.211151e-05)
(0.90339843 0 3.1612915e-05)
(0.90322582 -1.9122048e-16 3.3940398e-05)
(0.90288536 0 3.8084644e-05)
(0.90267134 0 3.8268723e-05)
(0.90230277 2.8666382e-16 4.5743242e-05)
(0.9019998 -1.9107212e-16 4.1937299e-05)
(0.90166273 0 4.9523366e-05)
(0.90126403 9.5498968e-17 4.6193452e-05)
(0.90096108 0 5.0875559e-05)
(0.90050181 -1.9092375e-16 5.0997417e-05)
(0.90018864 9.5443333e-17 5.059283e-05)
(0.89974015 0 5.1230303e-05)
(0.89941016 2.8621872e-16 4.6692639e-05)
(0.89903528 0 4.5888165e-05)
(0.89871114 -1.9073829e-16 4.1868489e-05)
(0.89840503 0 4.0987051e-05)
(0.89808918 9.5332052e-17 4.1121203e-05)
(0.89778944 2.8594052e-16 4.118159e-05)
(0.89746797 -1.9058992e-16 4.3861497e-05)
(0.89713232 9.5276413e-17 4.3969596e-05)
(0.89680519 0 4.3440062e-05)
(0.89647823 9.5239317e-17 4.1714318e-05)
(0.89617264 -1.9044153e-16 3.3784037e-05)
(0.89596962 0 3.1352115e-05)
(0.89569116 -9.5183671e-17 2.0028266e-05)
(0.89567996 9.5165125e-17 2.2777907e-05)
(0.89533443 9.5146576e-17 1.993315e-05)
(0.89541579 -1.9025605e-16 2.8132485e-05)
(0.89488797 9.5109479e-17 4.1835981e-05)
(0.89484091 0 4.1408011e-05)
(0.8942254 2.8521714e-16 6.653193e-05)
(0.89388748 -1.9010766e-16 4.9970625e-05)
(0.89342586 0 7.4878173e-05)
(0.89278328 9.501673e-17 5.952076e-05)
(0.89249307 0 7.4324026e-05)
(0.89166914 -9.497963e-17 7.3288564e-05)
(0.89136092 0 7.1299105e-05)
(0.89059243 -1.8988506e-16 7.5062716e-05)
(0.89019427 9.4923981e-17 6.0382866e-05)
(0.88967831 9.4905431e-17 6.0701135e-05)
(0.88923949 -1.8977375e-16 4.948331e-05)
(0.88893834 0 4.7224046e-05)
(0.8884953 9.4849775e-17 5.0815003e-05)
(0.88818894 2.8449368e-16 4.6700419e-05)
(0.88776882 -9.4812673e-17 5.9764575e-05)
(0.88730005 0 5.5153895e-05)
(0.88692035 -9.477557e-17 6.095318e-05)
(0.88637967 0 5.5447738e-05)
(0.88606407 -1.8947693e-16 4.0561034e-05)
(0.88576202 0 3.4258302e-05)
(0.88551852 0 5.8810142e-06)
(0.88568905 9.4682811e-17 9.4136589e-06)
(0.88534204 2.8399278e-16 -3.6289883e-06)
(0.88581034 9.4645704e-17 1.359059e-05)
(0.88509036 0 3.8048476e-05)
(0.88534614 9.4608598e-17 4.1522362e-05)
(0.8843875 9.4590045e-17 9.453913e-05)
(0.88401757 0 6.5113699e-05)
(0.88330975 9.4552938e-17 0.0001195162)
(0.8822573 0 8.8313908e-05)
(0.88189818 9.4515831e-17 0.00011849577)
(0.8804693 0 0.00011080102)
(0.88016043 9.4478722e-17 9.9252364e-05)
(0.87895408 0 9.6971598e-05)
(0.87861915 2.8332484e-16 5.2390756e-05)
(0.87815184 9.442306e-17 4.5245848e-05)
(0.87785956 0 6.6936467e-06)
(0.87808178 9.438595e-17 2.8017033e-06)
(0.87776292 0 2.734961e-06)
(0.87812086 9.4348839e-17 -4.1454116e-06)
(0.87778604 0 3.0290471e-05)
(0.87774915 9.4311728e-17 1.4971137e-05)
(0.87752689 0 5.0948688e-05)
(0.87703227 2.8282385e-16 3.9298555e-05)
(0.8769008 1.8851211e-16 3.8299197e-05)
(0.87648285 0 3.8076295e-05)
(0.87627035 9.4218944e-17 -7.8360327e-06)
(0.87665759 2.8260117e-16 1.087337e-05)
(0.87600766 9.4181833e-17 -2.7803749e-05)
(0.87722831 0 9.3804238e-06)
(0.87571285 9.4144718e-17 4.4812795e-05)
(0.87680415 0 4.0335118e-05)
(0.87488086 9.4107602e-17 0.00015225598)
(0.87474977 0 6.469699e-05)
(0.87365446 0 0.00019732735)
(0.87190095 9.405193e-17 0.00011050462)
(0.87179562 2.8210011e-16 0.00019697328)
(0.8689585 2.8204444e-16 0.00017986687)
(0.86892827 0 0.00016777901)
(0.86640996 9.3977696e-17 0.00017075223)
(0.86616463 2.8187742e-16 7.4165204e-05)
(0.86527922 9.3940581e-17 6.0146846e-05)
(0.86507237 9.3922019e-17 -2.9958765e-05)
(0.86580857 0 -4.394432e-05)
(0.86561434 9.3884901e-17 -5.1395959e-05)
(0.86676624 2.8159904e-16 -7.1325795e-05)
(0.86661829 2.8154334e-16 -3.65164e-06)
(0.86701418 0 -3.6411534e-05)
(0.86711602 9.3810662e-17 3.8277162e-05)
(0.86656126 2.8137632e-16 1.7779603e-05)
(0.86679666 1.8754708e-16 2.3636335e-05)
(0.86628079 9.3754985e-17 2.6962019e-05)
(0.8662957 0 -5.4040836e-05)
(0.86721938 2.8115359e-16 -1.9830261e-05)
(0.86642551 9.3699301e-17 -9.5403441e-05)
(0.86894573 9.368074e-17 -3.0512714e-05)
(0.86662242 0 2.0886181e-05)
(0.8690882 9.3643618e-17 1.522855e-05)
(0.8660071 2.8087516e-16 0.00019877907)
(0.86652982 2.8081949e-16 5.0429253e-05)
(0.86481226 9.3587928e-17 0.0002629738)
(0.86281421 0 0.00012829573)
(0.86253651 2.8065241e-16 0.00023840724)
(0.85932014 1.8706449e-16 0.00027281748)
(0.85812024 9.3513681e-17 0.0001487971)
(0.85715773 0 0.00033322897)
(0.85264996 2.8042967e-16 -0.00010412015)
(0.85899183 2.8037399e-16 0.00030788851)
(0.84730121 1.8687885e-16 -0.00053847914)
(0.867994 9.3420876e-17 0.00046952119)
(0.83887099 0 -0.0012642132)
(0.88936478 2.8015128e-16 0.0012208891)
(0.81718079 2.8009545e-16 -0.0026321689)
(0.93463263 0 0.0043703092)
(0.74260409 9.3327977e-17 -0.0023103349)
(0.98272942 2.7992876e-16 0.02279321)
(0.374382 2.7987218e-16 0.025135259)
(0.63239117 0 0.12977069)
(-1.658295 9.3253288e-17 0.21825628)
(-2.6102674 2.7970774e-16 0.61881835)
(-11.23272 2.7964709e-16 0.98288239)
(-17.36157 1.8640221e-16 1.8538361)
(-39.815216 0 1.1594845)
(-34.225783 9.3179604e-17 -3.411818)
(11.993331 2.7951531e-16 -27.928233)
(395.72363 1.8646686e-16 -107.59941)
(1658.0081 0 -352.293)
(5793.8797 9.36358e-17 -1024.3623)
(17342.417 2.8233545e-16 -2675.3121)
(46778.886 9.4553182e-17 -6550.1467)
(117855.25 -1.8870405e-16 -13103.174)
(247859.14 0 -22941.018)
(471124.46 1.6416499e-16 -14694.893)
(1.4092393 1.9588715e-16 0.035639683)
(1.2550795 0 0.035594938)
(1.1026113 0 0.026924844)
(1.0213094 0 0.015177728)
(0.97170536 1.9685288e-16 0.0083737719)
(0.94871845 3.9363114e-16 0.0041066102)
(0.93628269 -3.9355653e-16 0.0020292281)
(0.93109632 3.9348191e-16 0.00093025374)
(0.92826465 0 0.00044959567)
(0.92717687 -1.9666634e-16 0.00021236575)
(0.9264389 0 0.00012207573)
(0.92610805 0 7.7602722e-05)
(0.92577223 0 6.502597e-05)
(0.92553966 1.965171e-16 5.7677132e-05)
(0.92527468 0 5.7211971e-05)
(0.92504148 0 5.6049729e-05)
(0.92478955 0 5.6588858e-05)
(0.9245496 0 5.6336292e-05)
(0.92430109 1.9633054e-16 5.6630046e-05)
(0.92405764 0 5.6524269e-05)
(0.92381051 3.9251182e-16 5.6635649e-05)
(0.92356563 0 5.6573353e-05)
(0.92331919 -1.9618128e-16 5.6603503e-05)
(0.92307378 0 5.6559935e-05)
(0.92282773 0 5.6555549e-05)
(0.9225822 0 5.6519156e-05)
(0.92233642 0 5.6502063e-05)
(0.92209093 1.959947e-16 5.647098e-05)
(0.92184534 0 5.6455084e-05)
(0.9215999 0 5.6433028e-05)
(0.92135442 0 5.6424368e-05)
(0.92110895 1.9584544e-16 5.6411406e-05)
(0.92086349 0 5.640774e-05)
(0.92061794 0 5.6398531e-05)
(0.92037247 0 5.6395456e-05)
(0.92012683 0 5.6382001e-05)
(0.91988139 0 5.6382291e-05)
(0.91963561 0 5.6366183e-05)
(0.91939026 0 5.6377008e-05)
(0.9191442 0 5.6373567e-05)
(0.91889888 1.9550957e-16 5.6386036e-05)
(0.91865247 0 5.6410704e-05)
(0.91840694 0 5.6393395e-05)
(0.91816043 0 5.6443929e-05)
(0.91791444 1.9536028e-16 5.6398873e-05)
(0.91766815 0 5.646662e-05)
(0.91742145 0 5.6455697e-05)
(0.91717517 0 5.6530529e-05)
(0.91692763 0 5.6578131e-05)
(0.91668084 0 5.6631764e-05)
(0.91643262 0 5.6679766e-05)
(0.91618524 0 5.6684021e-05)
(0.91593682 0 5.6686268e-05)
(0.9156893 1.9502437e-16 5.6650817e-05)
(0.91544104 0 5.6636764e-05)
(0.9151936 -1.9494972e-16 5.6598296e-05)
(0.91494556 0 5.6618466e-05)
(0.91469789 0 5.6591576e-05)
(0.91444996 0 5.6630974e-05)
(0.91420182 -1.9480041e-16 5.6585232e-05)
(0.91395421 0 5.6589688e-05)
(0.91370583 0 5.6495061e-05)
(0.91345909 0 5.6483221e-05)
(0.91321057 -1.946511e-16 5.6384418e-05)
(0.91296491 0 5.644088e-05)
(0.91271546 0 5.6462606e-05)
(0.91247005 1.9453912e-16 5.6574295e-05)
(0.91221885 0 5.6802897e-05)
(0.91197189 -1.9446446e-16 5.6805671e-05)
(0.9117198 0 5.718818e-05)
(0.91146966 0 5.7060098e-05)
(0.91121823 0 5.747903e-05)
(0.91096408 -1.9431513e-16 5.7474144e-05)
(0.91071271 0 5.7816167e-05)
(0.91045493 3.8848094e-16 5.801377e-05)
(0.91020177 0 5.8146537e-05)
(0.90994229 -1.941658e-16 5.828939e-05)
(0.9096876 0 5.8170579e-05)
(0.90942894 0 5.8122168e-05)
(0.90917454 0 5.7915094e-05)
(0.90891768 0 5.7868356e-05)
(0.90866383 5.8193741e-16 5.7783714e-05)
(0.90840762 0 5.7940124e-05)
(0.90815251 -1.9390447e-16 5.7941773e-05)
(0.90789601 0 5.8143996e-05)
(0.90763889 -1.9382979e-16 5.7906913e-05)
(0.90738438 0 5.7837395e-05)
(0.90712735 -1.9375512e-16 5.7138961e-05)
(0.9068797 0 5.6945245e-05)
(0.90662356 0 5.6169463e-05)
(0.90638484 0 5.6453434e-05)
(0.9061242 0 5.6526434e-05)
(0.90588824 -1.9356843e-16 5.7285215e-05)
(0.90561686 0 5.8762694e-05)
(0.90537131 -1.9349376e-16 5.8893464e-05)
(0.90509395 0 6.1279497e-05)
(0.90482882 5.8025723e-16 6.0423469e-05)
(0.90455668 0 6.276285e-05)
(0.90426952 -3.8668879e-16 6.236337e-05)
(0.90400162 0 6.3852497e-05)
(0.90369848 -1.9326971e-16 6.4502439e-05)
(0.90342542 0 6.4498264e-05)
(0.90312065 3.8639006e-16 6.4935505e-05)
(0.9028426 0 6.3620729e-05)
(0.90255033 0 6.3268911e-05)
(0.90227428 -1.93083e-16 6.2006209e-05)
(0.90199551 0 6.1714901e-05)
(0.90172182 -1.9300832e-16 6.1683626e-05)
(0.90144476 0 6.2120458e-05)
(0.9011671 -1.9293363e-16 6.2763658e-05)
(0.90088384 0 6.3270216e-05)
(0.90060094 3.8571788e-16 6.249428e-05)
(0.90032396 0 6.1813104e-05)
(0.90004557 -1.9278425e-16 5.8224432e-05)
(0.89980374 0 5.6971419e-05)
(0.8995333 -3.8541912e-16 5.2537057e-05)
(0.89934159 -1.9267222e-16 5.3594156e-05)
(0.89905285 0 5.325874e-05)
(0.89888188 1.9259752e-16 5.6851077e-05)
(0.89854224 0 6.3550537e-05)
(0.89832984 -3.8504565e-16 6.4108072e-05)
(0.89796208 -1.9248548e-16 7.5132652e-05)
(0.8976604 -1.9244813e-16 7.0255071e-05)
(0.89732458 0 8.052405e-05)
(0.89692678 0 7.7123546e-05)
(0.89662542 0 8.2688189e-05)
(0.89616684 5.7689619e-16 8.4299391e-05)
(0.89585516 0 8.2545107e-05)
(0.89540748 -3.8444806e-16 8.3865007e-05)
(0.89507874 -1.9218668e-16 7.6526676e-05)
(0.894705 0 7.5006164e-05)
(0.89438203 -1.9211198e-16 6.9077824e-05)
(0.89407731 0 6.7516064e-05)
(0.89376262 0 6.81138e-05)
(0.89346422 -1.9199992e-16 6.8289239e-05)
(0.89314396 -1.9196257e-16 7.2441223e-05)
(0.89280938 0 7.2741591e-05)
(0.89248345 -3.8377572e-16 7.1480948e-05)
(0.89215737 0 6.8580098e-05)
(0.89185295 1.9181315e-16 5.5906443e-05)
(0.89165109 0 5.1555908e-05)
(0.89137373 -1.9173844e-16 3.4473589e-05)
(0.89136449 0 3.8260872e-05)
(0.89101962 0 3.5369014e-05)
(0.89110378 -1.9162638e-16 4.7997863e-05)
(0.89057574 0 7.0226789e-05)
(0.89053141 -3.8310333e-16 7.0431536e-05)
(0.88991563 -1.9151431e-16 0.00010729306)
(0.88957929 1.9147695e-16 8.5165472e-05)
(0.889119 0 0.00011825886)
(0.88847659 -3.8280447e-16 0.00010084853)
(0.88818907 0 0.0001175424)
(0.88736461 -1.9132752e-16 0.00012133959)
(0.88705875 0 0.00011412884)
(0.8862902 -1.912528e-16 0.00012150362)
(0.88589347 0 9.7662574e-05)
(0.88537869 0 9.7463583e-05)
(0.88494073 -1.9114072e-16 8.1030836e-05)
(0.88464163 0 7.7048246e-05)
(0.8841993 -3.82132e-16 8.3406702e-05)
(0.88389476 -1.9102864e-16 7.7865142e-05)
(0.88347577 5.7297383e-16 9.7039782e-05)
(0.8830078 0 9.1830913e-05)
(0.88262968 1.9091655e-16 9.8139265e-05)
(0.88208901 0 9.0878417e-05)
(0.88177496 -1.9084183e-16 6.540306e-05)
(0.88147339 3.8160894e-16 5.5163935e-05)
(0.88123116 0 1.12957e-05)
(0.88140408 0 1.5691407e-05)
(0.88105742 -1.9069238e-16 -1.285832e-06)
(0.88153015 3.8131002e-16 2.491366e-05)
(0.88080866 0 6.57987e-05)
(0.88106898 0 7.2434954e-05)
(0.88010849 0 0.00015160402)
(0.87974077 0 0.00011244076)
(0.87903419 0 0.00018633052)
(0.87798087 3.8086163e-16 0.00015022797)
(0.8776258 0 0.00018428986)
(0.87619439 3.8071217e-16 0.00018275667)
(0.87588902 0 0.00015591525)
(0.87468102 0 0.00015492661)
(0.87434795 -1.9024398e-16 8.3184469e-05)
(0.87388179 0 7.0133704e-05)
(0.87359021 0 1.2856275e-05)
(0.87381607 0 5.1119728e-06)
(0.87349687 3.8018901e-16 8.2259857e-06)
(0.8738587 0 -1.7186056e-06)
(0.8735238 0 5.0585457e-05)
(0.87348869 0 3.1601039e-05)
(0.87326821 0 8.0804505e-05)
(0.87277272 -1.8990766e-16 6.9621062e-05)
(0.87264406 1.8987028e-16 5.9937932e-05)
(0.87222484 0 6.3126601e-05)
(0.8720142 3.7959108e-16 -1.1526231e-05)
(0.87240391 -1.8975817e-16 1.6522528e-05)
(0.87175303 0 -3.8827524e-05)
(0.87298178 0 1.7110487e-05)
(0.87146058 0 7.8283548e-05)
(0.87256165 0 7.3604904e-05)
(0.87063164 0 0.00024038994)
(0.87050531 0 0.00012030068)
(0.86941115 0 0.00030055411)
(0.86765453 0 0.00019765585)
(0.86755787 -1.894218e-16 0.00029942263)
(0.86471291 -1.8938443e-16 0.00030137751)
(0.86469016 0 0.00025898403)
(0.86216575 3.7861936e-16 0.00027230481)
(0.86192353 -1.892723e-16 0.00011427268)
(0.86103849 0 8.8910954e-05)
(0.86083185 0 -4.6754845e-05)
(0.86157407 0 -7.1987085e-05)
(0.86137797 0 -7.7431225e-05)
(0.86253641 -1.8908542e-16 -0.00010642733)
(0.86238733 -1.8904804e-16 -4.0261137e-06)
(0.86278542 0 -4.4524017e-05)
(0.86288999 0 5.8016273e-05)
(0.86233218 -1.8893591e-16 4.0789389e-05)
(0.86257238 -1.8889852e-16 3.3684119e-05)
(0.8620524 0 4.67957e-05)
(0.86207044 0 -8.6635516e-05)
(0.86299619 -1.8878639e-16 -3.452167e-05)
(0.86220102 0 -0.00014516486)
(0.86473238 0 -4.6892745e-05)
(0.862401 0 4.2750251e-05)
(0.86487881 0 3.8722925e-05)
(0.86179134 -1.8859947e-16 0.0003111063)
(0.86231218 -1.885621e-16 0.00010906059)
(0.8606101 0 0.00039306541)
(0.85858398 0 0.00024214369)
(0.85835426 -1.8844994e-16 0.0003520666)
(0.85507274 -1.8841256e-16 0.00046367743)
(0.85396266 0 0.00021861052)
(0.85287211 0 0.00053842865)
(0.84854564 -1.883004e-16 -0.00018031591)
(0.85461974 -1.8826303e-16 0.00048943234)
(0.84333128 1.8822563e-16 -0.00087440053)
(0.86341791 0 0.00076067857)
(0.83520977 3.7630169e-16 -0.002049259)
(0.88429194 -1.8811352e-16 0.0019868706)
(0.81421545 1.8807604e-16 -0.0042654892)
(0.92840885 0 0.0071325618)
(0.74138116 0 -0.0035453739)
(0.97438643 -1.8796413e-16 0.03755139)
(0.37903437 -1.8792615e-16 0.042698034)
(0.62419891 0 0.2150734)
(-1.6266062 0 0.3656904)
(-2.5868874 -1.8781574e-16 1.0275142)
(-11.068343 -1.8777502e-16 1.6409004)
(-17.127735 -1.8774562e-16 3.0728889)
(-39.10521 0 1.9207523)
(-33.215711 3.7540194e-16 -5.7792942)
(13.87866 -1.8768565e-16 -46.703348)
(396.48266 -1.8780848e-16 -179.85185)
(1652.7769 0 -588.28803)
(5763.1625 0 -1710.0055)
(17228.553 -1.8951495e-16 -4467.0104)
(46492.91 0 -10935.802)
(117168.84 1.8977863e-16 -21916.091)
(247244.8 3.2466428e-16 -38356.082)
(470104.96 -1.0983693e-16 -24636.313)
(1.3975115 -3.9456078e-16 0.050049295)
(1.2441976 -3.9676356e-16 0.049894338)
(1.0935391 0 0.037666551)
(1.0132634 -3.9661329e-16 0.021237116)
(0.96434071 0 0.011709696)
(0.94165832 7.2265005e-27 0.0057463455)
(0.92938118 3.963879e-16 0.0028384823)
(0.92425961 1.2329058e-26 0.0013025981)
(0.921459 0 0.000629324)
(0.92038322 -3.9616249e-16 0.00029786207)
(0.91965155 0 0.00017116487)
(0.91932357 -3.9601221e-16 0.00010910778)
(0.91899009 0 9.1355876e-05)
(0.91875928 3.9586193e-16 8.1147442e-05)
(0.91849616 0 8.0433703e-05)
(0.91826471 3.9571165e-16 7.8841056e-05)
(0.91801463 0 7.9569661e-05)
(0.91777649 3.9556137e-16 7.9231039e-05)
(0.91752983 3.9548622e-16 7.9631338e-05)
(0.91728821 0 7.9489292e-05)
(0.91704294 -3.9533593e-16 7.9640881e-05)
(0.91679989 3.9526079e-16 7.955588e-05)
(0.9165553 0 7.959633e-05)
(0.91631174 3.9511049e-16 7.9536294e-05)
(0.91606753 0 7.9529588e-05)
(0.91582386 3.949602e-16 7.9479295e-05)
(0.91557991 3.9488505e-16 7.9455435e-05)
(0.91533627 0 7.9412819e-05)
(0.91509253 3.9473475e-16 7.9390189e-05)
(0.91484893 0 7.9360074e-05)
(0.9146053 0 7.9347001e-05)
(0.91436167 -3.9450929e-16 7.9329477e-05)
(0.91411806 3.9443414e-16 7.9322938e-05)
(0.91387435 0 7.9309749e-05)
(0.91363073 3.9428383e-16 7.9304322e-05)
(0.91338693 0 7.9285283e-05)
(0.91314334 3.9413352e-16 7.9284451e-05)
(0.9128994 0 7.9262154e-05)
(0.91265589 3.9398321e-16 7.9275536e-05)
(0.91241168 0 7.9269993e-05)
(0.9121682 -3.9383288e-16 7.9287095e-05)
(0.91192363 0 7.9315843e-05)
(0.91167996 -3.9368256e-16 7.9297775e-05)
(0.91143529 0 7.9354602e-05)
(0.91119114 -3.9353224e-16 7.930619e-05)
(0.9109467 0 7.9381218e-05)
(0.91070184 -3.9338191e-16 7.9382111e-05)
(0.91045741 0 7.9467515e-05)
(0.91021171 -3.9323158e-16 7.9542323e-05)
(0.90996677 0 7.9604235e-05)
(0.90972039 -3.9308125e-16 7.9671887e-05)
(0.90947487 3.9300609e-16 7.9672733e-05)
(0.90922828 0 7.9674598e-05)
(0.90898261 0 7.9625916e-05)
(0.90873621 3.9278059e-16 7.9604586e-05)
(0.90849061 -3.9947471e-28 7.9555526e-05)
(0.90824441 3.9263025e-16 7.9577222e-05)
(0.90799859 -3.9255507e-16 7.9547164e-05)
(0.90775251 0 7.9590387e-05)