/*--------------------------------*- C++ -*----------------------------------*\
  =========                 |
  \\      /  F ield         | OpenFOAM: The Open Source CFD Toolbox
   \\    /   O peration     | Website:  https://openfoam.org
    \\  /    A nd           | Version:  6
     \\/     M anipulation  |
\*---------------------------------------------------------------------------*/
FoamFile
{
    version     2.0;
    format      ascii;
    class       volVectorField;
    location    "10";
    object      grad(p);
}
// * * * * * * * * * * * * * * * * * * * * * * * * * * * * * * * * * * * * * //

dimensions      [0 1 -2 0 0 0 0];

internalField   nonuniform List<vector> 
5000
(
(6571.407 0 82519.126)
(-53584.576 0 63999.6)
(-226584.18 3.0865039e-12 45506.377)
(-383234.18 3.0832204e-12 32906.517)
(-468190.33 0 20399.18)
(-522466.22 0 12386.813)
(-553201.78 0 7119.6278)
(-569979.61 0 3877.9084)
(-578414.81 0 1956.6632)
(-582147.42 0 870.82729)
(-583354.98 -3.0451141e-12 290.30482)
(-583312.51 3.0392319e-12 0)
(-582732.52 -3.0333541e-12 -125.15645)
(-581990.02 0 -165.22305)
(-581272.52 0 -165.2396)
(-580655.02 -3.0157617e-12 -140.21734)
(-580160.01 0 -115.19006)
(-579785.01 -3.0040593e-12 -85.149011)
(-579510.01 2.998212e-12 -60.111206)
(-579315 -2.992366e-12 -40.078152)
(-579182.5 -2.9865204e-12 -25.051355)
(-579097.5 0 -15.03232)
(-579050 -2.9748286e-12 -10.022551)
(-579027.5 -2.9689816e-12 -5.0117777)
(-579020 -2.9631336e-12 0)
(-579027.5 0 5.0127826)
(-579042.5 -2.9514339e-12 5.0132852)
(-579062.5 -2.945582e-12 5.0137879)
(-579090 0 5.0142907)
(-579117.5 -2.9338739e-12 10.029587)
(-579147.5 -2.9280176e-12 5.0152967)
(-579180 -2.9221598e-12 10.0316)
(-579210 0 10.032606)
(-579242.5 -2.9104397e-12 5.0168063)
(-579277.5 -2.9045774e-12 10.034619)
(-579310 -2.8987135e-12 10.035626)
(-579342.5 0 10.036634)
(-579375 -2.8869812e-12 10.037641)
(-579407.5 -2.8811128e-12 10.038649)
(-579442.5 0 10.039657)
(-579475 -2.8693713e-12 10.040665)
(-579507.5 -2.8634983e-12 10.041673)
(-579542.5 -2.8576237e-12 5.0213407)
(-579577.5 0 10.04369)
(-579610 -2.8458699e-12 10.044699)
(-579642.5 -2.8399907e-12 10.045708)
(-579675 0 10.046717)
(-579710 -2.8282277e-12 5.0238634)
(-579745 -2.8223439e-12 10.048736)
(-579775 -2.8164586e-12 10.049746)
(-579810 0 10.050756)
(-579845 -2.8046832e-12 10.051767)
(-579875 -2.7987933e-12 10.052777)
(-579910 -2.7929018e-12 5.0268939)
(-579945 0 10.054799)
(-579977.5 -2.7811142e-12 10.05581)
(-580010 -2.775218e-12 10.056821)
(-580045 0 5.0289163)
(-580080 -2.7634211e-12 10.058844)
(-580110 -2.7575204e-12 10.059856)
(-580145 -2.7516181e-12 10.060868)
(-580180 0 10.061881)
(-580212.5 -2.7398088e-12 10.062893)
(-580245 -2.7339019e-12 10.063906)
(-580277.5 0 10.064919)
(-580312.5 -2.7220834e-12 10.065932)
(-580347.5 -2.7161718e-12 10.066945)
(-580380 -2.7102587e-12 10.067959)
(-580412.5 0 10.068972)
(-580447.5 -2.6984277e-12 5.0349932)
(-580482.5 -2.69251e-12 10.071001)
(-580515 0 10.072015)
(-580547.5 -2.6806698e-12 10.073029)
(-580582.5 -2.6747473e-12 10.074044)
(-580615 -2.6688233e-12 10.075059)
(-580647.5 0 10.076074)
(-580682.5 -2.6569707e-12 10.07709)
(-580717.5 -2.6510421e-12 10.078105)
(-580750 -2.6451119e-12 10.079121)
(-580782.5 0 10.080137)
(-580817.5 -2.6332468e-12 10.081153)
(-580850 -2.6273119e-12 10.08217)
(-580885 0 5.0415931)
(-580920 -2.6154375e-12 10.084203)
(-580952.5 -2.609498e-12 10.08522)
(-580985 -2.6035569e-12 10.086237)
(-581017.5 0 10.087255)
(-581052.5 -2.5916701e-12 10.088272)
(-581087.5 -2.5857243e-12 10.08929)
(-581120 0 10.090308)
(-581155 -2.5738281e-12 5.0456633)
(-581190 -2.5678776e-12 10.092345)
(-581220 -2.5619256e-12 10.093364)
(-581255 0 10.094382)
(-581290 -2.5500169e-12 10.095402)
(-581322.5 -2.5440602e-12 10.096421)
(-581357.5 -2.5381019e-12 10.09744)
(-581390 0 10.09846)
(-581422.5 -2.5261807e-12 10.09948)
(-581457.5 -2.5202177e-12 5.0502499)
(-581492.5 0 5.0507601)
(-581527.5 -2.5082871e-12 10.102541)
(-581560 -2.5023194e-12 10.103562)
(-581592.5 -2.4963502e-12 10.104582)
(-581627.5 0 10.105604)
(-581660 -2.484407e-12 10.106625)
(-581695 -2.4784331e-12 5.0538232)
(-581730 0 10.108668)
(-581762.5 -2.4664805e-12 10.10969)
(-581795 -2.4605019e-12 10.110712)
(-581830 -2.4545217e-12 5.0558673)
(-581865 0 10.112757)
(-581897.5 -2.4425565e-12 10.11378)
(-581932.5 -2.4365716e-12 10.114803)
(-581965 0 10.115826)
(-582000 -2.424597e-12 5.0584248)
(-582035 -2.4186073e-12 10.117873)
(-582067.5 -2.4126161e-12 10.118897)
(-582100 0 10.119921)
(-582135 -2.4006289e-12 5.0604727)
(-582170 -2.3946329e-12 10.12197)
(-582202.5 -2.3886354e-12 10.122994)
(-582237.5 0 10.124019)
(-582272.5 -2.3766355e-12 10.125044)
(-582305 -2.3706332e-12 10.12607)
(-582337.5 0 10.127095)
(-582372.5 -2.358624e-12 10.128121)
(-582407.5 -2.3526169e-12 5.0645733)
(-582442.5 -2.3466083e-12 10.130173)
(-582475 0 10.131199)
(-582507.5 -2.3345864e-12 10.132226)
(-582542.5 -2.328573e-12 5.0666261)
(-582577.5 0 5.0671396)
(-582612.5 -2.3165416e-12 10.135306)
(-582645 -2.3105235e-12 10.136334)
(-582680 -2.3045038e-12 5.0686806)
(-582715 0 10.138389)
(-582747.5 -2.2924596e-12 10.139417)
(-582780 -2.2864352e-12 10.140445)
(-582815 0 10.141474)
(-582850 -2.2743815e-12 10.142502)
(-582882.5 -2.2683523e-12 10.143531)
(-582917.5 -2.2623215e-12 10.14456)
(-582952.5 0 10.145589)
(-582987.5 -2.2502551e-12 10.146619)
(-583020 -2.2442195e-12 10.147648)
(-583052.5 -2.2381824e-12 10.148678)
(-583087.5 0 10.149708)
(-583122.5 -2.2261033e-12 10.150738)
(-583157.5 -2.2200613e-12 10.151769)
(-583192.5 0 10.1528)
(-583225 -2.2079726e-12 10.153831)
(-583257.5 -2.2019259e-12 10.154862)
(-583292.5 -2.1958776e-12 10.155893)
(-583327.5 0 10.156924)
(-583362.5 -2.1837761e-12 10.157956)
(-583395 -2.177723e-12 10.158988)
(-583430 0 5.0800102)
(-583465 -2.165612e-12 10.161053)
(-583497.5 -2.1595541e-12 10.162085)
(-583532.5 -2.1534946e-12 10.163118)
(-583567.5 -2.1474335e-12 10.164151)
(-583602.5 -2.1413708e-12 10.165184)
(-583635 -2.1353064e-12 10.166218)
(-583667.5 -2.1292405e-12 10.167251)
(-583705 0 5.0841425)
(-583740 -2.1171039e-12 10.169319)
(-583772.5 -2.1110332e-12 10.170353)
(-583805 -2.1049608e-12 10.171388)
(-583840 -2.0988869e-12 5.0862113)
(-583875 -2.0928114e-12 10.173457)
(-583910 -2.0867342e-12 5.0872463)
(-583945 0 10.175528)
(-583977.5 -2.0745751e-12 10.176563)
(-584012.5 -2.0684932e-12 10.177599)
(-584047.5 0 10.178635)
(-584082.5 -2.0563244e-12 10.179671)
(-584115 -2.0502376e-12 10.180708)
(-584147.5 -2.0441492e-12 10.181744)
(-584185 0 5.0913905)
(-584220 -2.0319676e-12 10.183818)
(-584252.5 -2.0258743e-12 10.184855)
(-584287.5 0 10.185893)
(-584322.5 -2.013683e-12 10.18693)
(-584355 -2.007585e-12 10.187968)
(-584390 -2.0014853e-12 10.189006)
(-584425 -1.995384e-12 10.190044)
(-584460 -1.9892811e-12 10.191083)
(-584495 -1.9831765e-12 10.192121)
(-584527.5 -1.9770704e-12 10.19316)
(-584562.5 0 10.1942)
(-584597.5 -1.9648533e-12 10.195239)
(-584630 -1.9587423e-12 10.196278)
(-584665 -1.9526297e-12 5.0986591)
(-584702.5 -1.9465154e-12 10.198358)
(-584735 -1.9403996e-12 10.199398)
(-584767.5 -1.9342821e-12 10.200439)
(-584805 0 10.201479)
(-584840 -1.9220423e-12 10.20252)
(-584872.5 -1.9159199e-12 10.203561)
(-584907.5 0 10.204602)
(-584940 -1.9036704e-12 10.205644)
(-584975 -1.8975432e-12 5.1033427)
(-585012.5 -1.8914144e-12 10.207727)
(-585045 0 10.208769)
(-585080 -1.8791519e-12 10.209812)
(-585115 -1.8730181e-12 10.210854)
(-585147.5 0 10.211897)
(-585185 -1.8607459e-12 5.1064699)
(-585220 -1.8546073e-12 10.213983)
(-585252.5 -1.8484671e-12 10.215026)
(-585287.5 -1.8423252e-12 10.21607)
(-585322.5 -1.8361817e-12 10.217114)
(-585355 -1.8300366e-12 10.218158)
(-585390 0 10.219202)
(-585427.5 0 10.220246)
(-585460 -1.8115916e-12 10.221291)
(-585495 -1.80544e-12 10.222336)
(-585530 -1.7992867e-12 10.223381)
(-585562.5 0 10.224426)
(-585600 -1.7869753e-12 10.225472)
(-585635 -1.7808171e-12 10.226517)
(-585667.5 0 10.227563)
(-585702.5 -1.7684959e-12 10.228609)
(-585737.5 0 10.229656)
(-585772.5 0 10.230702)
(-585807.5 -1.7500018e-12 10.231749)
(-585842.5 -1.7438338e-12 10.232796)
(-585875 -1.7376642e-12 10.233843)
(-585910 -1.731493e-12 10.234891)
(-585947.5 -1.72532e-12 10.235938)
(-585980 -1.7191455e-12 10.236986)
(-586015 -1.7129693e-12 10.238034)
(-586050 -1.7067915e-12 10.239083)
(-586085 0 10.240131)
(-586120 -1.6944309e-12 10.24118)
(-586152.5 -1.6882482e-12 10.242229)
(-586190 -1.6820638e-12 10.243278)
(-586225 -1.6758778e-12 10.244327)
(-586257.5 0 10.245377)
(-586292.5 0 10.246427)
(-586327.5 -1.6573098e-12 10.247477)
(-586362.5 -1.6511172e-12 5.1242634)
(-586400 -1.6449229e-12 5.1247886)
(-586435 0 10.250628)
(-586467.5 -1.6325294e-12 10.251679)
(-586500 -1.6263302e-12 10.25273)
(-586535 0 5.1268905)
(-586572.5 -1.6139269e-12 5.1274163)
(-586607.5 0 10.255884)
(-586642.5 0 10.256936)
(-586677.5 -1.5953095e-12 10.257988)
(-586712.5 -1.5891003e-12 10.259041)
(-586745 -1.5828896e-12 10.260093)
(-586780 -1.5766772e-12 5.130573)
(-586817.5 -1.5704631e-12 10.262199)
(-586852.5 -1.5642473e-12 10.263252)
(-586885 -1.5580299e-12 10.264306)
(-586920 -1.5518109e-12 10.26536)
(-586957.5 0 10.266413)
(-586990 -1.5393679e-12 10.267468)
(-587025 -1.5331439e-12 10.268522)
(-587062.5 -1.5269182e-12 10.269576)
(-587095 -1.5206908e-12 10.270631)
(-587130 0 10.271686)
(-587167.5 0 10.272741)
(-587200 -1.5019989e-12 10.273797)
(-587235 -1.4957649e-12 10.274852)
(-587270 -1.4895293e-12 10.275908)
(-587305 0 10.276964)
(-587342.5 -1.477053e-12 10.27802)
(-587375 -1.4708124e-12 10.279077)
(-587410 0 10.280134)
(-587447.5 -1.4583262e-12 10.281191)
(-587480 0 10.282248)
(-587515 0 10.283305)
(-587552.5 -1.4395843e-12 10.284363)
(-587585 -1.4333337e-12 10.28542)
(-587620 -1.4270814e-12 10.286478)
(-587657.5 -1.4208275e-12 10.287537)
(-587690 -1.4145718e-12 10.288595)
(-587725 -1.4083145e-12 5.1448269)
(-587762.5 -1.4020556e-12 10.290713)
(-587797.5 -1.3957949e-12 10.291772)
(-587832.5 0 10.292831)
(-587865 -1.3832686e-12 10.293891)
(-587900 -1.377003e-12 5.1474752)
(-587937.5 -1.3707357e-12 10.29601)
(-587972.5 -1.3644667e-12 10.29707)
(-588007.5 0 10.298131)
(-588042.5 0 10.299191)
(-588077.5 -1.3456497e-12 10.300252)
(-588112.5 -1.339374e-12 10.301313)
(-588147.5 -1.3330966e-12 10.302375)
(-588185 0 5.1517181)
(-588220 -1.3205368e-12 10.304498)
(-588252.5 -1.3142544e-12 10.30556)
(-588287.5 0 10.306622)
(-588325 -1.3016845e-12 10.307684)
(-588360 0 10.308747)
(-588392.5 -1.2891079e-12 10.30981)
(-588430 -1.2828171e-12 10.310873)
(-588465 -1.2765246e-12 10.311936)
(-588500 -1.2702305e-12 10.313)
(-588537.5 -1.2639346e-12 10.314063)
(-588570 -1.257637e-12 10.315127)
(-588605 -1.2513378e-12 10.316191)
(-588642.5 -1.2450369e-12 10.317256)
(-588677.5 -1.2387343e-12 10.31832)
(-588710 0 10.319385)
(-588745 -1.226124e-12 5.160225)
(-588785 -1.2198164e-12 5.1607576)
(-588820 -1.213507e-12 10.322581)
(-588852.5 -1.207196e-12 10.323646)
(-588887.5 0 10.324712)
(-588922.5 0 10.325778)
(-588960 -1.1882527e-12 10.326845)
(-588995 -1.1819349e-12 10.327911)
(-589030 -1.1756154e-12 10.328978)
(-589065 0 10.330045)
(-589100 0 10.331112)
(-589137.5 0 10.33218)
(-589172.5 0 10.333247)
(-589205 0 10.334315)
(-589240 0 5.1676916)
(-589280 0 5.1682258)
(-589315 -1.1249985e-12 10.33752)
(-589347.5 0 10.338589)
(-589382.5 0 10.339658)
(-589420 -1.1059892e-12 10.340727)
(-589455 0 10.341796)
(-589490 0 10.342866)
(-589527.5 0 10.343936)
(-589562.5 -1.0806196e-12 10.345006)
(-589595 0 10.346076)
(-589630 0 5.1735734)
(-589670 -1.0615746e-12 5.1741087)
(-589705 0 10.349288)
(-589737.5 0 10.35036)
(-589775 0 10.351431)
(-589810 -1.0361573e-12 10.352503)
(-589845 0 10.353575)
(-589880 0 10.354647)
(-589915 0 5.1778595)
(-589952.5 -1.0107128e-12 10.356791)
(-589987.5 0 10.357864)
(-590025 0 5.1794686)
(-590060 0 10.36001)
(-590092.5 0 10.361084)
(-590130 0 5.1810787)
(-590167.5 0 10.363231)
(-590200 -9.6611905e-13 10.364305)
(-590235 0 5.1826898)
(-590272.5 0 5.1832271)
(-590310 -9.469818e-13 5.1837645)
(-590345 0 10.368604)
(-590377.5 0 10.369679)
(-590415 0 5.1853772)
(-590452.5 -9.2144143e-13 10.37183)
(-590487.5 0 10.372906)
(-590522.5 0 10.373982)
(-590557.5 -9.022681e-13 10.375058)
(-590592.5 0 10.376135)
(-590627.5 0 10.377212)
(-590665 0 5.1891443)
(-590702.5 -8.7667965e-13 10.379366)
(-590737.5 0 10.380443)
(-590772.5 0 10.381521)
(-590807.5 0 10.382599)
(-590842.5 -8.5106362e-13 10.383677)
(-590877.5 0 10.384755)
(-590915 0 5.1929168)
(-590952.5 0 10.386912)
(-590987.5 0 10.387991)
(-591022.5 0 10.389071)
(-591057.5 0 10.39015)
(-591092.5 -8.0616923e-13 10.39123)
(-591130 0 5.1961549)
(-591167.5 0 10.39339)
(-591202.5 -7.8690284e-13 10.39447)
(-591237.5 0 10.395551)
(-591272.5 0 10.396632)
(-591307.5 0 10.397713)
(-591345 -7.6119016e-13 10.398794)
(-591382.5 0 10.399875)
(-591415 0 10.400957)
(-591452.5 -7.4188742e-13 5.2010194)
(-591490 0 10.403121)
(-591522.5 0 10.404203)
(-591560 0 10.405286)
(-591597.5 -7.1612616e-13 10.406369)
(-591632.5 0 10.407452)
(-591667.5 0 10.408535)
(-591702.5 0 10.409618)
(-591740 -6.9033714e-13 10.410702)
(-591777.5 0 10.411786)
(-591812.5 0 10.41287)
(-591847.5 0 10.413955)
(-591882.5 0 10.415039)
(-591920 0 10.416124)
(-591955 0 10.417209)
(-591990 -6.4513933e-13 10.418295)
(-592027.5 0 10.41938)
(-592065 0 10.420466)
(-592100 -6.2574267e-13 10.421552)
(-592135 0 10.422638)
(-592172.5 0 10.423724)
(-592207.5 0 10.424811)
(-592242.5 -5.9985607e-13 10.425898)
(-592280 0 10.426985)
(-592317.5 0 10.428072)
(-592352.5 0 10.42916)
(-592387.5 0 10.430248)
(-592422.5 0 10.431336)
(-592460 0 10.432424)
(-592497.25 -5.5448716e-13 10.433512)
(-592532.5 0 9.9128711)
(-592568.5 0 9.9139056)
(-592604.5 0 9.9149403)
(-592640.75 -5.2852352e-13 9.3940817)
(-592677 0 9.9170103)
(-592713 0 9.9180456)
(-592749.25 0 9.3970243)
(-592785.5 0 9.920117)
(-592821.5 0 9.921153)
(-592857.75 0 9.9221891)
(-592894 -4.8301957e-13 9.9232256)
(-592930 0 9.9242622)
(-592966.25 0 9.9252991)
(-593002.5 -4.6349149e-13 9.9263361)
(-593038.75 0 9.4048801)
(-593075 0 9.9284109)
(-593111.25 0 9.9294487)
(-593147.5 -4.374294e-13 9.9304866)
(-593183.5 0 9.9315247)
(-593219.75 0 9.4097966)
(-593256.25 0 9.4107806)
(-593292.5 0 9.9346405)
(-593328.75 0 9.9356795)
(-593365 0 9.9367188)
(-593401.25 -3.9175279e-13 9.9377583)
(-593437.75 0 9.9387979)
(-593474 0 9.9398378)
(-593510 0 9.9408779)
(-593546.5 -3.6561298e-13 9.4186594)
(-593583 0 9.9429588)
(-593619.25 0 9.9439996)
(-593655.5 0 9.9450406)
(-593691.75 0 9.9460818)
(-593728.25 0 9.9471232)
(-593764.75 0 9.9481648)
(-593801 -3.198001e-13 9.9492067)
(-593837.25 0 9.9502488)
(-593873.75 0 9.951291)
(-593910.25 -3.0013939e-13 9.9523336)
(-593946.5 0 9.9533763)
(-593983 0 9.4305024)
(-594019.5 0 9.9554624)
(-594055.75 -2.7390022e-13 9.9565058)
(-594092.25 0 9.9575494)
(-594128.75 0 9.9585932)
(-594165.25 0 9.9596373)
(-594201.75 0 9.9606815)
(-594238.25 0 9.961726)
(-594274.5 0 9.9627707)
(-594311 -2.2791312e-13 9.9638156)
(-594347.75 0 9.9648608)
(-594384 0 9.9659061)
(-594420.5 0 9.9669517)
(-594457.25 -2.0159553e-13 9.9679975)
(-594493.75 0 9.9690435)
(-594530.25 0 9.9700897)
(-594566.75 0 9.9711362)
(-594603.25 0 9.9721829)
(-594639.75 0 9.9732298)
(-594676.25 0 9.9742769)
(-594713 -1.5547091e-13 9.9753242)
(-594749.75 0 9.9763718)
(-594786.25 0 9.9774195)
(-594822.75 0 9.9784675)
(-594859.25 -1.2907458e-13 9.9795157)
(-594896 0 9.9805642)
(-594932.75 0 9.9816128)
(-594969.5 -1.0925849e-13 9.9826617)
(-595006.25 0 9.9837108)
(-595042.75 0 9.9847601)
(-595079.5 0 9.9858096)
(-595116.25 0 9.9868594)
(-595153 0 9.9879094)
(-595190 0 9.4632249)
(-595226.5 -6.2958018e-14 9.99001)
(-595262.8 0 9.4652153)
(-595298.8 0 9.4662109)
(-595333.42 0 9.1516331)
(-595366.82 -3.6461063e-14 8.3109779)
(-595394.75 0 7.4175391)
(-595428.05 0 4.0511391)
(-595376.43 0 12.99658)
(-595840.89 0 -98.826501)
(-593620.68 0 211.43098)
(-2675.6534 0 233826.69)
(-72082.804 0 181722.26)
(-242123.32 3.0878814e-12 130092.52)
(-395781.05 3.0841644e-12 89156.205)
(-478444.43 0 55129.808)
(-529101.72 0 32913.102)
(-557453.16 0 18622.104)
(-572559.03 0 9932.4493)
(-579917.04 0 4859.1303)
(-582979.81 0 2026.9256)
(-583789.96 -3.0451199e-12 545.57285)
(-583520.03 3.0392301e-12 -175.20148)
(-582815.05 -3.0333492e-12 -460.57572)
(-582010.06 0 -530.71647)
(-581260.05 0 -495.71879)
(-580630.04 -3.0157573e-12 -415.64425)
(-580132.53 0 -330.5454)
(-579757.53 -3.0040567e-12 -245.4295)
(-579487.52 2.9982102e-12 -175.32435)
(-579297.51 -2.9923647e-12 -120.23446)
(-579170.01 -2.9865196e-12 -80.164337)
(-579090.01 0 -50.107732)
(-579045 -2.9748283e-12 -30.067652)
(-579022.5 -2.9689815e-12 -10.023555)
(-579015 -2.9631336e-12 0)
(-579025 0 10.025565)
(-579042.5 -2.951434e-12 15.039856)
(-579062.5 -2.9455822e-12 15.041364)
(-579087.5 0 20.057163)
(-579117.5 -2.9338741e-12 20.059175)
(-579147.5 -2.9280178e-12 20.061187)
(-579177.5 -2.9221601e-12 25.078999)
(-579212.5 0 25.081515)
(-579242.5 -2.91044e-12 25.084032)
(-579275 -2.9045777e-12 25.086549)
(-579310 -2.8987138e-12 25.089066)
(-579342.5 0 25.091584)
(-579375 -2.8869816e-12 30.112923)
(-579407.5 -2.8811131e-12 25.096622)
(-579442.5 0 25.099142)
(-579475 -2.8693716e-12 25.101662)
(-579510 -2.8634986e-12 25.104182)
(-579542.5 -2.8576239e-12 25.106704)
(-579575 0 25.109225)
(-579610 -2.8458702e-12 25.111747)
(-579642.5 -2.839991e-12 25.11427)
(-579677.5 0 25.116793)
(-579710 -2.828228e-12 25.119317)
(-579742.5 -2.8223442e-12 30.146209)
(-579775 -2.8164589e-12 30.149239)
(-579810 0 25.126891)
(-579845 -2.8046836e-12 30.1553)
(-579877.5 -2.7987936e-12 30.158331)
(-579910 -2.7929021e-12 25.134469)
(-579942.5 0 25.136997)
(-579977.5 -2.7811144e-12 25.139524)
(-580012.5 -2.7752183e-12 25.142053)
(-580045 0 25.144581)
(-580077.5 -2.7634215e-12 30.176533)
(-580110 -2.7575207e-12 30.179568)
(-580145 -2.7516184e-12 25.152171)
(-580180 0 25.154701)
(-580212.5 -2.7398091e-12 25.157233)
(-580245 -2.7339022e-12 30.191717)
(-580277.5 0 25.162297)
(-580312.5 -2.7220837e-12 25.16483)
(-580347.5 -2.7161721e-12 25.167363)
(-580380 -2.7102589e-12 25.169897)
(-580415 0 25.172431)
(-580447.5 -2.698428e-12 25.174966)
(-580480 -2.6925102e-12 25.177501)
(-580515 0 25.180037)
(-580547.5 -2.68067e-12 25.182574)
(-580582.5 -2.6747476e-12 25.185111)
(-580615 -2.6688236e-12 25.187648)
(-580647.5 0 25.190186)
(-580682.5 -2.656971e-12 25.192724)
(-580717.5 -2.6510423e-12 25.195263)
(-580750 -2.6451121e-12 25.197803)
(-580782.5 0 25.200343)
(-580817.5 -2.6332471e-12 25.202883)
(-580852.5 -2.6273122e-12 25.205424)
(-580885 0 25.207966)
(-580917.5 -2.6154378e-12 25.210508)
(-580952.5 -2.6094983e-12 25.21305)
(-580985 -2.6035572e-12 30.258712)
(-581017.5 0 25.218137)
(-581052.5 -2.5916703e-12 25.220681)
(-581087.5 -2.5857246e-12 25.223226)
(-581122.5 0 25.225771)
(-581155 -2.5738283e-12 25.228316)
(-581187.5 -2.5678779e-12 30.277035)
(-581220 -2.5619259e-12 30.280091)
(-581255 0 25.235956)
(-581290 -2.5500171e-12 25.238504)
(-581322.5 -2.5440605e-12 25.241052)
(-581357.5 -2.5381022e-12 25.243601)
(-581390 0 25.24615)
(-581425 -2.526181e-12 25.2487)
(-581460 -2.520218e-12 25.25125)
(-581490 0 25.253801)
(-581525 -2.5082874e-12 25.256352)
(-581560 -2.5023197e-12 25.258904)
(-581592.5 -2.4963505e-12 25.261456)
(-581627.5 0 25.264009)
(-581662.5 -2.4844073e-12 25.266562)
(-581695 -2.4784334e-12 25.269116)
(-581727.5 0 25.27167)
(-581762.5 -2.4664808e-12 25.274225)
(-581797.5 -2.4605021e-12 25.276781)
(-581830 -2.4545219e-12 25.279337)
(-581862.5 0 25.281893)
(-581897.5 -2.4425568e-12 25.28445)
(-581932.5 -2.4365718e-12 25.287008)
(-581967.5 0 25.289566)
(-582000 -2.4245972e-12 25.292124)
(-582032.5 -2.4186076e-12 25.294683)
(-582067.5 -2.4126163e-12 25.297243)
(-582102.5 0 25.299803)
(-582135 -2.4006291e-12 25.302363)
(-582167.5 -2.3946332e-12 25.304924)
(-582202.5 -2.3886356e-12 25.307486)
(-582237.5 0 25.310048)
(-582272.5 -2.3766358e-12 25.312611)
(-582305 -2.3706335e-12 25.315174)
(-582337.5 0 25.317738)
(-582375 -2.3586242e-12 25.320302)
(-582407.5 -2.3526172e-12 25.322867)
(-582440 -2.3466086e-12 25.325432)
(-582475 0 25.327998)
(-582510 -2.3345867e-12 25.330564)
(-582545 -2.3285733e-12 25.333131)
(-582575 0 25.335698)
(-582610 -2.3165419e-12 25.338266)
(-582647.5 -2.3105237e-12 25.340834)
(-582680 -2.304504e-12 25.343403)
(-582712.5 0 30.415167)
(-582747.5 -2.2924599e-12 25.348542)
(-582780 -2.2864355e-12 30.421335)
(-582815 0 25.353684)
(-582850 -2.2743818e-12 25.356255)
(-582882.5 -2.2683526e-12 25.358827)
(-582917.5 -2.2623218e-12 25.3614)
(-582952.5 0 25.363973)
(-582987.5 -2.2502554e-12 25.366547)
(-583020 -2.2442198e-12 30.442945)
(-583052.5 -2.2381826e-12 25.371695)
(-583087.5 0 25.37427)
(-583122.5 -2.2261035e-12 25.376846)
(-583157.5 -2.2200616e-12 25.379422)
(-583192.5 0 25.381999)
(-583225 -2.2079729e-12 30.461492)
(-583257.5 -2.2019262e-12 25.387154)
(-583292.5 -2.1958779e-12 25.389732)
(-583327.5 0 25.392311)
(-583362.5 -2.1837764e-12 25.394891)
(-583397.5 -2.1777233e-12 25.39747)
(-583430 0 25.400051)
(-583462.5 -2.1656123e-12 25.402632)
(-583497.5 -2.1595544e-12 25.405213)
(-583532.5 -2.1534949e-12 25.407795)
(-583567.5 -2.1474337e-12 25.410378)
(-583602.5 -2.141371e-12 25.412961)
(-583635 -2.1353067e-12 30.498653)
(-583670 -2.1292408e-12 25.418128)
(-583705 0 25.420713)
(-583737.5 -2.1171042e-12 30.507958)
(-583772.5 -2.1110334e-12 25.425884)
(-583807.5 -2.1049611e-12 30.514164)
(-583840 -2.0988872e-12 25.431056)
(-583875 -2.0928116e-12 25.433644)
(-583910 -2.0867345e-12 25.436231)
(-583942.5 0 25.43882)
(-583977.5 -2.0745754e-12 25.441408)
(-584012.5 -2.0684934e-12 25.443998)
(-584047.5 0 25.446588)
(-584082.5 -2.0563247e-12 25.449178)
(-584115 -2.0502379e-12 30.542123)
(-584150 -2.0441495e-12 25.45436)
(-584185 0 25.456952)
(-584217.5 -2.0319678e-12 25.459545)
(-584252.5 -2.0258746e-12 25.462138)
(-584287.5 0 25.464731)
(-584322.5 -2.0136833e-12 25.467325)
(-584355 -2.0075853e-12 30.563904)
(-584390 -2.0014856e-12 25.472515)
(-584425 -1.9953843e-12 25.475111)
(-584460 -1.9892814e-12 25.477707)
(-584495 -1.9831769e-12 30.576364)
(-584527.5 -1.9770707e-12 25.482901)
(-584562.5 0 25.485499)
(-584597.5 -1.9648535e-12 25.488097)
(-584632.5 -1.9587426e-12 30.588835)
(-584665 -1.9526299e-12 25.493295)
(-584700 -1.9465157e-12 25.495895)
(-584735 -1.9403999e-12 30.598195)
(-584767.5 -1.9342824e-12 25.501097)
(-584805 0 25.503698)
(-584840 -1.9220426e-12 30.60756)
(-584872.5 -1.9159202e-12 25.508903)
(-584907.5 0 25.511506)
(-584942.5 -1.9036707e-12 30.616931)
(-584975 -1.8975435e-12 25.516713)
(-585010 -1.8914147e-12 25.519318)
(-585045 0 25.521923)
(-585080 -1.8791521e-12 25.524529)
(-585115 -1.8730184e-12 25.527135)
(-585150 0 25.529742)
(-585185 -1.8607461e-12 25.53235)
(-585217.5 -1.8546076e-12 30.641949)
(-585252.5 -1.8484673e-12 25.537566)
(-585287.5 -1.8423255e-12 25.540175)
(-585322.5 -1.836182e-12 25.542784)
(-585355 -1.830037e-12 30.654473)
(-585390 0 25.548005)
(-585427.5 0 25.550616)
(-585460 -1.8115919e-12 30.663873)
(-585495 -1.8054402e-12 25.55584)
(-585530 -1.799287e-12 30.670143)
(-585562.5 0 25.561065)
(-585600 -1.7869756e-12 25.563679)
(-585635 -1.7808174e-12 30.679552)
(-585667.5 0 25.568908)
(-585702.5 -1.7684962e-12 25.571524)
(-585737.5 0 25.574139)
(-585772.5 0 25.576756)
(-585807.5 -1.750002e-12 25.579373)
(-585842.5 -1.7438341e-12 25.58199)
(-585875 -1.7376645e-12 30.70153)
(-585910 -1.7314932e-12 25.587227)
(-585947.5 -1.7253203e-12 25.589846)
(-585980 -1.7191458e-12 30.710959)
(-586015 -1.7129696e-12 25.595086)
(-586050 -1.7067918e-12 25.597706)
(-586085 0 25.600328)
(-586120 -1.6944313e-12 30.723539)
(-586152.5 -1.6882485e-12 25.605572)
(-586190 -1.6820641e-12 25.608195)
(-586225 -1.6758781e-12 30.732982)
(-586257.5 0 25.613442)
(-586292.5 0 25.616066)
(-586330 -1.6573101e-12 25.618691)
(-586365 -1.6511175e-12 25.621317)
(-586397.5 -1.6449232e-12 25.623943)
(-586432.5 0 30.751884)
(-586467.5 -1.6325298e-12 30.755036)
(-586502.5 -1.6263306e-12 30.758189)
(-586537.5 0 25.634453)
(-586570 -1.6139272e-12 25.637081)
(-586605 0 25.639711)
(-586642.5 0 25.642341)
(-586677.5 -1.5953097e-12 25.644971)
(-586712.5 -1.5891006e-12 25.647602)
(-586747.5 -1.5828899e-12 30.78028)
(-586780 -1.5766774e-12 25.652865)
(-586815 -1.5704634e-12 25.655498)
(-586852.5 -1.5642476e-12 25.658131)
(-586885 -1.5580303e-12 30.792918)
(-586920 -1.5518112e-12 25.663399)
(-586957.5 0 25.666034)
(-586990 -1.5393682e-12 30.802403)
(-587025 -1.5331441e-12 25.671305)
(-587062.5 -1.5269185e-12 25.673941)
(-587095 -1.5206912e-12 30.811893)
(-587130 0 25.679215)
(-587167.5 0 25.681853)
(-587200 -1.5019992e-12 30.82139)
(-587235 -1.4957652e-12 25.687131)
(-587270 -1.4895296e-12 25.68977)
(-587305 0 25.69241)
(-587342.5 -1.4770533e-12 25.695051)
(-587375 -1.4708127e-12 30.837231)
(-587410 0 25.700334)
(-587447.5 -1.4583264e-12 25.702976)
(-587480 0 30.846743)
(-587515 0 25.708263)
(-587552.5 -1.4395846e-12 25.710907)
(-587585 -1.433334e-12 30.856261)
(-587620 -1.4270817e-12 25.716196)
(-587657.5 -1.4208277e-12 25.718842)
(-587692.5 -1.4145721e-12 25.721488)
(-587725 -1.4083148e-12 25.724134)
(-587760 -1.4020559e-12 25.726782)
(-587797.5 -1.3957952e-12 25.729429)
(-587832.5 0 25.732078)
(-587867.5 -1.383269e-12 30.881672)
(-587900 -1.3770033e-12 25.737376)
(-587935 -1.370736e-12 25.740026)
(-587972.5 -1.364467e-12 25.742676)
(-588007.5 0 25.745327)
(-588042.5 0 25.747979)
(-588077.5 -1.3456499e-12 25.750631)
(-588112.5 -1.3393742e-12 25.753284)
(-588150 -1.3330969e-12 25.755937)
(-588185 0 25.75859)
(-588217.5 -1.3205371e-12 30.913494)
(-588252.5 -1.3142546e-12 25.7639)
(-588287.5 0 25.766555)
(-588325 -1.3016848e-12 25.769211)
(-588360 0 30.926241)
(-588392.5 -1.2891082e-12 25.774524)
(-588430 -1.2828174e-12 25.777182)
(-588465 -1.2765249e-12 25.77984)
(-588500 -1.2702307e-12 25.782499)
(-588537.5 -1.2639349e-12 25.785158)
(-588570 -1.2576373e-12 30.945381)
(-588605 -1.2513381e-12 25.790478)
(-588642.5 -1.2450372e-12 25.793139)
(-588677.5 -1.2387346e-12 25.7958)
(-588712.5 0 30.958155)
(-588747.5 -1.2261243e-12 25.801125)
(-588782.5 -1.2198166e-12 25.803788)
(-588817.5 -1.2135073e-12 30.967742)
(-588852.5 -1.2071963e-12 30.970939)
(-588887.5 0 25.81178)
(-588922.5 0 25.814446)
(-588960 -1.188253e-12 25.817112)
(-588995 -1.1819352e-12 25.819778)
(-589030 -1.1756157e-12 25.822445)
(-589065 0 25.825112)
(-589100 0 25.82778)
(-589137.5 0 25.830449)
(-589172.5 0 25.833118)
(-589207.5 0 31.002945)
(-589242.5 0 25.838458)
(-589277.5 0 25.841129)
(-589312.5 -1.1249988e-12 31.01256)
(-589347.5 0 25.846472)
(-589382.5 0 25.849144)
(-589420 -1.1059895e-12 25.851817)
(-589455 0 25.854491)
(-589490 0 25.857165)
(-589527.5 0 25.85984)
(-589562.5 -1.0806199e-12 25.862515)
(-589597.5 0 31.038229)
(-589632.5 0 25.867867)
(-589667.5 -1.0615748e-12 25.870544)
(-589702.5 0 31.047865)
(-589737.5 0 25.875899)
(-589775 0 25.878578)
(-589810 -1.0361576e-12 31.057508)
(-589845 0 25.883936)
(-589882.5 0 25.886617)
(-589915 0 25.889297)
(-589950 -1.0107131e-12 25.891979)
(-589990 0 25.894661)
(-590025 0 25.897343)
(-590057.5 0 31.080031)
(-590095 0 25.902709)
(-590130 0 25.905393)
(-590165 0 25.908078)
(-590202.5 -9.6611938e-13 31.092916)
(-590237.5 0 25.913449)
(-590272.5 0 25.916135)
(-590307.5 -9.4698207e-13 25.918822)
(-590342.5 0 25.92151)
(-590380 0 25.924198)
(-590415 0 25.926886)
(-590450 -9.214417e-13 25.929575)
(-590487.5 0 25.932265)
(-590522.5 0 31.121946)
(-590557.5 -9.0226843e-13 31.125175)
(-590592.5 0 25.940337)
(-590630 0 25.943029)
(-590665 0 25.945722)
(-590700 -8.7667992e-13 25.948415)
(-590737.5 0 25.951108)
(-590772.5 0 31.144563)
(-590807.5 0 31.147796)
(-590842.5 -8.510639e-13 25.959192)
(-590880 0 25.961888)
(-590915 0 25.964584)
(-590950 0 25.967281)
(-590987.5 0 25.969979)
(-591022.5 0 25.972677)
(-591057.5 0 25.975375)
(-591095 -8.061695e-13 25.978074)
(-591130 0 25.980774)
(-591165 0 25.983475)
(-591202.5 -7.8690312e-13 25.986175)
(-591237.5 0 31.186652)
(-591272.5 0 31.189894)
(-591307.5 0 25.994281)
(-591345 -7.6119043e-13 25.996984)
(-591382.5 0 25.999688)
(-591417.5 0 31.202871)
(-591452.5 -7.4188769e-13 26.005097)
(-591487.5 0 31.209363)
(-591522.5 0 26.010508)
(-591560 0 26.013215)
(-591597.5 -7.1612644e-13 26.015922)
(-591632.5 0 26.018629)
(-591667.5 0 26.021338)
(-591702.5 0 26.024046)
(-591740 -6.9033742e-13 26.026755)
(-591777.5 0 26.029465)
(-591812.5 0 31.238611)
(-591847.5 0 31.241864)
(-591882.5 0 26.037598)
(-591920 0 26.04031)
(-591955 0 31.251628)
(-591990 -6.4513961e-13 26.045736)
(-592027.5 0 26.04845)
(-592065 0 26.051164)
(-592100 -6.25743e-13 31.264655)
(-592135 0 26.056595)
(-592172.5 0 26.059311)
(-592207.5 0 26.062028)
(-592242.5 -5.9985634e-13 26.064745)
(-592280 0 26.067463)
(-592317.5 0 26.070181)
(-592352.5 0 26.0729)
(-592387.5 0 26.075619)
(-592422.5 0 26.078339)
(-592460 0 26.08106)
(-592497.5 -5.5448744e-13 26.083781)
(-592532.75 0 27.129963)
(-592568.5 0 27.132794)
(-592604.75 0 27.135626)
(-592640.75 -5.285238e-13 26.616565)
(-592676.75 0 27.141291)
(-592713.25 0 27.144125)
(-592749.25 0 26.624902)
(-592785.25 0 27.149794)
(-592821.5 0 27.152629)
(-592857.75 0 26.633245)
(-592894 -4.8301986e-13 27.158302)
(-592930 0 27.161139)
(-592966.25 0 26.641592)
(-593002.75 -4.6349178e-13 27.166815)
(-593038.75 0 26.64716)
(-593074.75 0 27.172493)
(-593111.25 0 27.175333)
(-593147.5 -4.3742968e-13 27.178174)
(-593183.75 0 27.181015)
(-593220 0 26.661091)
(-593256 0 26.663878)
(-593292.25 0 27.189542)
(-593328.75 0 26.669456)
(-593365 0 27.19523)
(-593401.25 -3.9175307e-13 26.675035)
(-593437.75 0 27.200921)
(-593474 0 27.203767)
(-593510.25 0 27.206613)
(-593546.5 -3.6561326e-13 26.686202)
(-593582.75 0 27.212308)
(-593619.25 0 27.215157)
(-593655.5 0 27.218006)
(-593691.75 0 27.220855)
(-593728.25 0 27.223706)
(-593764.75 0 27.226556)
(-593801 -3.1980039e-13 27.229408)
(-593837.25 0 27.23226)
(-593873.75 0 27.235112)
(-593910.25 -3.0013968e-13 27.237966)
(-593946.75 0 27.240819)
(-593983 0 26.719757)
(-594019.25 0 27.246529)
(-594055.75 -2.7390051e-13 27.249384)
(-594092.25 0 26.728159)
(-594128.75 0 26.730961)
(-594165.25 0 27.257955)
(-594201.75 0 27.260813)
(-594238.25 0 27.263671)
(-594274.5 0 27.26653)
(-594311 -2.279134e-13 26.744979)
(-594347.75 0 27.27225)
(-594384 0 27.275111)
(-594420.5 0 26.753397)