/*--------------------------------*- C++ -*----------------------------------*\
  =========                 |
  \\      /  F ield         | OpenFOAM: The Open Source CFD Toolbox
   \\    /   O peration     | Website:  https://openfoam.org
    \\  /    A nd           | Version:  6
     \\/     M anipulation  |
\*---------------------------------------------------------------------------*/
FoamFile
{
    version     2.0;
    format      ascii;
    class       surfaceScalarField;
    location    "10";
    object      phi;
}
// * * * * * * * * * * * * * * * * * * * * * * * * * * * * * * * * * * * * * //

dimensions      [0 3 -1 0 0 0 0];

internalField   nonuniform List<scalar> 
9490
(
0.01619533
-0.0012203303
0.018546637
-0.0023513067
0.021157524
-0.0026108869
0.023557855
-0.0024003306
0.025552774
-0.0019949199
0.027115582
-0.0015628079
0.02829218
-0.0011765979
0.029153138
-0.00086095809
0.029769413
-0.00061627448
0.030202555
-0.000433142
0.030502044
-0.00029948901
0.03070586
-0.00020381585
0.030842255
-0.00013639532
0.030931768
-8.9512461e-05
0.030989059
-5.7291564e-05
0.031024442
-3.5382914e-05
0.031045077
-2.0634629e-05
0.031055878
-1.0801578e-05
0.031060186
-4.3073153e-06
0.031060244
-5.8684352e-08
0.03105755
2.6938755e-06
0.031053091
4.4590178e-06
0.031047513
5.5785524e-06
0.031041233
6.280006e-06
0.031034519
6.7134318e-06
0.031027543
6.9768653e-06
0.031020409
7.1337499e-06
0.031013184
7.2247314e-06
0.031005909
7.2755765e-06
0.030998606
7.3024275e-06
0.030991291
7.3152682e-06
0.030983971
7.3201787e-06
0.03097665
7.320797e-06
0.030969331
7.3192497e-06
0.030962014
7.3167445e-06
0.0309547
7.3139381e-06
0.030947389
7.3111656e-06
0.03094008
7.3085785e-06
0.030932774
7.306228e-06
0.03092547
7.3041144e-06
0.030918168
7.3022133e-06
0.030910867
7.3004928e-06
0.030903568
7.2989188e-06
0.030896271
7.2974621e-06
0.030888975
7.2960958e-06
0.03088168
7.2947999e-06
0.030874386
7.2935564e-06
0.030867094
7.2923531e-06
0.030859803
7.2911788e-06
0.030852513
7.2900268e-06
0.030845224
7.2888903e-06
0.030837936
7.287766e-06
0.030830649
7.2866497e-06
0.030823364
7.2855401e-06
0.030816079
7.2844345e-06
0.030808796
7.2833326e-06
0.030801514
7.2822326e-06
0.030794233
7.2811348e-06
0.030786953
7.2800378e-06
0.030779674
7.2789422e-06
0.030772396
7.2778471e-06
0.030765119
7.2767528e-06
0.030757843
7.2756588e-06
0.030750569
7.2745656e-06
0.030743295
7.2734726e-06
0.030736023
7.2723802e-06
0.030728752
7.2712882e-06
0.030721482
7.2701967e-06
0.030714212
7.2691055e-06
0.030706944
7.2680148e-06
0.030699678
7.2669243e-06
0.030692412
7.2658343e-06
0.030685147
7.2647444e-06
0.030677883
7.2636547e-06
0.030670621
7.2625652e-06
0.030663359
7.2614758e-06
0.030656099
7.2603865e-06
0.03064884
7.2592972e-06
0.030641581
7.258208e-06
0.030634324
7.2571188e-06
0.030627068
7.2560296e-06
0.030619813
7.2549405e-06
0.030612559
7.2538514e-06
0.030605307
7.2527626e-06
0.030598055
7.2516738e-06
0.030590804
7.2505852e-06
0.030583555
7.2494968e-06
0.030576307
7.2484086e-06
0.030569059
7.2473204e-06
0.030561813
7.2462325e-06
0.030554568
7.2451446e-06
0.030547324
7.244057e-06
0.030540081
7.2429693e-06
0.030532839
7.2418818e-06
0.030525598
7.2407941e-06
0.030518358
7.2397067e-06
0.03051112
7.2386191e-06
0.030503882
7.2375317e-06
0.030496646
7.2364441e-06
0.03048941
7.2353568e-06
0.030482176
7.2342693e-06
0.030474943
7.233182e-06
0.030467711
7.2320947e-06
0.03046048
7.2310076e-06
0.03045325
7.2299206e-06
0.030446021
7.2288338e-06
0.030438793
7.227747e-06
0.030431567
7.2266604e-06
0.030424341
7.225574e-06
0.030417117
7.2244877e-06
0.030409893
7.2234015e-06
0.030402671
7.2223154e-06
0.03039545
7.2212295e-06
0.03038823
7.2201436e-06
0.030381011
7.2190579e-06
0.030373793
7.2179722e-06
0.030366576
7.2168867e-06
0.03035936
7.2158012e-06
0.030352145
7.2147159e-06
0.030344932
7.2136308e-06
0.030337719
7.2125458e-06
0.030330508
7.211461e-06
0.030323297
7.2103763e-06
0.030316088
7.2092919e-06
0.03030888
7.2082076e-06
0.030301673
7.2071235e-06
0.030294466
7.2060395e-06
0.030287262
7.2049556e-06
0.030280058
7.2038717e-06
0.030272855
7.202788e-06
0.030265653
7.2017041e-06
0.030258453
7.2006202e-06
0.030251253
7.1995361e-06
0.030244055
7.1984521e-06
0.030236857
7.1973678e-06
0.030229661
7.1962834e-06
0.030222466
7.1951989e-06
0.030215272
7.1941144e-06
0.030208079
7.1930297e-06
0.030200887
7.1919451e-06
0.030193696
7.1908604e-06
0.030186506
7.1897759e-06
0.030179317
7.1886914e-06
0.03017213
7.1876072e-06
0.030164943
7.186523e-06
0.030157758
7.185439e-06
0.030150573
7.1843552e-06
0.03014339
7.1832716e-06
0.030136208
7.1821881e-06
0.030129027
7.1811048e-06
0.030121847
7.1800217e-06
0.030114668
7.1789387e-06
0.03010749
7.1778559e-06
0.030100313
7.1767732e-06
0.030093138
7.1756906e-06
0.030085963
7.1746083e-06
0.030078789
7.173526e-06
0.030071617
7.172444e-06
0.030064446
7.1713621e-06
0.030057275
7.1702803e-06
0.030050106
7.1691987e-06
0.030042938
7.1681172e-06
0.030035771
7.1670357e-06
0.030028605
7.1659543e-06
0.03002144
7.1648729e-06
0.030014276
7.1637915e-06
0.030007114
7.16271e-06
0.029999952
7.1616284e-06
0.029992791
7.1605467e-06
0.029985632
7.159465e-06
0.029978474
7.1583832e-06
0.029971316
7.1573013e-06
0.02996416
7.1562193e-06
0.029957005
7.1551374e-06
0.029949851
7.1540553e-06
0.029942698
7.1529734e-06
0.029935546
7.1518913e-06
0.029928395
7.1508094e-06
0.029921245
7.1497273e-06
0.029914097
7.1486454e-06
0.029906949
7.1475633e-06
0.029899803
7.1464812e-06
0.029892657
7.145399e-06
0.029885513
7.1443168e-06
0.02987837
7.1432344e-06
0.029871228
7.142152e-06
0.029864087
7.1410693e-06
0.029856947
7.1399866e-06
0.029849808
7.1389038e-06
0.02984267
7.137821e-06
0.029835533
7.1367381e-06
0.029828397
7.1356553e-06
0.029821263
7.1345725e-06
0.029814129
7.13349e-06
0.029806997
7.1324075e-06
0.029799866
7.1313252e-06
0.029792735
7.1302431e-06
0.029785606
7.1291613e-06
0.029778478
7.1280797e-06
0.029771351
7.1269983e-06
0.029764225
7.1259172e-06
0.0297571
7.1248363e-06
0.029749977
7.1237555e-06
0.029742854
7.1226749e-06
0.029735732
7.1215944e-06
0.029728612
7.120514e-06
0.029721492
7.1194338e-06
0.029714374
7.1183536e-06
0.029707257
7.1172735e-06
0.029700141
7.1161936e-06
0.029693026
7.1151137e-06
0.029685912
7.1140339e-06
0.029678799
7.1129543e-06
0.029671687
7.1118749e-06
0.029664576
7.1107956e-06
0.029657466
7.1097165e-06
0.029650358
7.1086376e-06
0.02964325
7.1075588e-06
0.029636143
7.1064802e-06
0.029629038
7.1054017e-06
0.029621934
7.1043234e-06
0.029614831
7.1032451e-06
0.029607728
7.102167e-06
0.029600627
7.1010888e-06
0.029593527
7.1000108e-06
0.029586428
7.0989327e-06
0.02957933
7.0978546e-06
0.029572234
7.0967765e-06
0.029565138
7.0956985e-06
0.029558043
7.0946204e-06
0.02955095
7.0935424e-06
0.029543857
7.0924645e-06
0.029536766
7.0913866e-06
0.029529676
7.0903088e-06
0.029522586
7.0892312e-06
0.029515498
7.0881537e-06
0.029508411
7.0870763e-06
0.029501325
7.085999e-06
0.02949424
7.0849219e-06
0.029487156
7.0838449e-06
0.029480074
7.0827679e-06
0.029472992
7.081691e-06
0.029465911
7.0806142e-06
0.029458832
7.0795374e-06
0.029451753
7.0784606e-06
0.029444676
7.0773837e-06
0.0294376
7.0763069e-06
0.029430524
7.07523e-06
0.02942345
7.0741532e-06
0.029416377
7.0730763e-06
0.029409305
7.0719995e-06
0.029402234
7.0709227e-06
0.029395164
7.0698461e-06
0.029388096
7.0687695e-06
0.029381028
7.067693e-06
0.029373961
7.0666166e-06
0.029366896
7.0655404e-06
0.029359831
7.0644643e-06
0.029352768
7.0633884e-06
0.029345706
7.0623125e-06
0.029338644
7.0612368e-06
0.029331584
7.060161e-06
0.029324525
7.0590854e-06
0.029317467
7.0580098e-06
0.02931041
7.0569342e-06
0.029303354
7.0558585e-06
0.0292963
7.0547829e-06
0.029289246
7.0537073e-06
0.029282193
7.0526317e-06
0.029275142
7.0515561e-06
0.029268091
7.0504806e-06
0.029261042
7.0494052e-06
0.029253993
7.0483299e-06
0.029246946
7.0472547e-06
0.0292399
7.0461796e-06
0.029232855
7.0451047e-06
0.029225811
7.0440301e-06
0.029218768
7.0429555e-06
0.029211726
7.0418812e-06
0.029204685
7.0408071e-06
0.029197646
7.0397331e-06
0.029190607
7.0386592e-06
0.029183569
7.0375855e-06
0.029176533
7.0365118e-06
0.029169497
7.0354383e-06
0.029162463
7.0343647e-06
0.02915543
7.0332912e-06
0.029148397
7.0322178e-06
0.029141366
7.0311444e-06
0.029134336
7.030071e-06
0.029127307
7.0289977e-06
0.029120279
7.0279244e-06
0.029113252
7.0268512e-06
0.029106227
7.025778e-06
0.029099202
7.024705e-06
0.029092178
7.0236321e-06
0.029085156
7.0225593e-06
0.029078134
7.0214865e-06
0.029071114
7.0204139e-06
0.029064095
7.0193413e-06
0.029057076
7.0182689e-06
0.029050059
7.0171964e-06
0.029043043
7.0161241e-06
0.029036028
7.0150517e-06
0.029029014
7.0139794e-06
0.029022001
7.012907e-06
0.029014989
7.0118346e-06
0.029007978
7.0107623e-06
0.029000969
7.0096899e-06
0.02899396
7.0086175e-06
0.028986953
7.0075452e-06
0.028979946
7.0064729e-06
0.028972941
7.0054007e-06
0.028965936
7.0043285e-06
0.028958933
7.0032564e-06
0.028951931
7.0021843e-06
0.02894493
7.0011124e-06
0.02893793
7.0000406e-06
0.028930931
6.9989689e-06
0.028923933
6.9978972e-06
0.028916936
6.9968257e-06
0.02890994
6.9957542e-06
0.028902946
6.9946829e-06
0.028895952
6.9936116e-06
0.028888959
6.9925404e-06
0.028881968
6.9914691e-06
0.028874978
6.990398e-06
0.028867988
6.9893269e-06
0.028861
6.9882559e-06
0.028854013
6.9871848e-06
0.028847027
6.986114e-06
0.028840042
6.9850431e-06
0.028833058
6.9839724e-06
0.028826075
6.9829017e-06
0.028819093
6.9818313e-06
0.028812112
6.9807609e-06
0.028805133
6.9796908e-06
0.028798154
6.9786207e-06
0.028791176
6.9775509e-06
0.0287842
6.9764811e-06
0.028777224
6.9754116e-06
0.02877025
6.9743421e-06
0.028763277
6.9732728e-06
0.028756305
6.9722035e-06
0.028749334
6.9711344e-06
0.028742363
6.9700653e-06
0.028735394
6.9689963e-06
0.028728427
6.9679273e-06
0.02872146
6.9668584e-06
0.028714494
6.9657894e-06
0.028707529
6.9647206e-06
0.028700565
6.9636518e-06
0.028693603
6.9625831e-06
0.028686641
6.9615144e-06
0.028679681
6.9604459e-06
0.028672722
6.9593773e-06
0.028665763
6.958309e-06
0.028658806
6.9572406e-06
0.02865185
6.9561725e-06
0.028644895
6.9551043e-06
0.028637941
6.9540363e-06
0.028630988
6.9529682e-06
0.028624036
6.9519004e-06
0.028617085
6.9508324e-06
0.028610135
6.9497646e-06
0.028603187
6.9486968e-06
0.028596239
6.9476291e-06
0.028589292
6.9465614e-06
0.028582347
6.9454938e-06
0.028575402
6.9444261e-06
0.028568459
6.9433587e-06
0.028561517
6.9422912e-06
0.028554576
6.9412238e-06
0.028547635
6.9401565e-06
0.028540696
6.9390893e-06
0.028533758
6.9380222e-06
0.028526821
6.9369552e-06
0.028519885
6.9358882e-06
0.028512951
6.9348214e-06
0.028506017
6.9337545e-06
0.028499084
6.9326879e-06
0.028492153
6.9316211e-06
0.028485222
6.9305545e-06
0.028478293
6.9294878e-06
0.028471364
6.9284212e-06
0.028464437
6.9273545e-06
0.02845751
6.9262879e-06
0.028450585
6.9252213e-06
0.028443661
6.9241547e-06
0.028436738
6.9230881e-06
0.028429816
6.9220217e-06
0.028422895
6.9209552e-06
0.028415975
6.9198888e-06
0.028409056
6.9188224e-06
0.028402139
6.9177562e-06
0.028395222
6.91669e-06
0.028388306
6.915624e-06
0.028381392
6.9145579e-06
0.028374478
6.9134921e-06
0.028367566
6.9124262e-06
0.028360654
6.9113605e-06
0.028353744
6.9102948e-06
0.028346835
6.9092293e-06
0.028339927
6.9081636e-06
0.02833302
6.9070982e-06
0.028326114
6.9060327e-06
0.028319209
6.9049674e-06
0.028312305
6.903902e-06
0.028305402
6.9028368e-06
0.0282985
6.9017715e-06
0.028291599
6.9007065e-06
0.0282847
6.8996414e-06
0.028277801
6.8985765e-06
0.028270904
6.8975116e-06
0.028264007
6.8964469e-06
0.028257112
6.8953821e-06
0.028250218
6.8943176e-06
0.028243324
6.893253e-06
0.028236432
6.8921887e-06
0.028229541
6.8911243e-06
0.028222651
6.8900601e-06
0.028215762
6.8889959e-06
0.028208874
6.8879318e-06
0.028201987
6.8868677e-06
0.028195101
6.8858037e-06
0.028188217
6.8847397e-06
0.028181333
6.8836759e-06
0.02817445
6.8826119e-06
0.028167569
6.8815482e-06
0.028160688
6.8804844e-06
0.028153809
6.8794208e-06
0.02814693
6.8783572e-06
0.028140053
6.8772937e-06
0.028133177
6.8762302e-06
0.028126302
6.875167e-06
0.028119428
6.8741037e-06
0.028112555
6.8730406e-06
0.028105683
6.8719774e-06
0.028098812
6.8709145e-06
0.028091942
6.8698515e-06
0.028085073
6.8687887e-06
0.028078205
6.8677259e-06
0.028071339
6.8666633e-06
0.028064473
6.8656006e-06
0.028057609
6.8645381e-06
0.028050745
6.8634755e-06
0.028043883
6.8624132e-06
0.028037021
6.8613508e-06
0.028030161
6.8602887e-06
0.028023302
6.8592265e-06
0.028016444
6.8581647e-06
0.028009587
6.8571028e-06
0.02800273
6.8560413e-06
0.027995876
6.8549798e-06
0.027989022
6.8539186e-06
0.027982169
6.8528575e-06
0.027975317
6.8517967e-06
0.027968466
6.8507361e-06
0.027961617
6.8496758e-06
0.027954768
6.8486155e-06
0.02794792
6.8475557e-06
0.027941074
6.8464959e-06
0.027934228
6.8454366e-06
0.027927384
6.8443772e-06
0.027920541
6.8433183e-06
0.027913698
6.8422593e-06
0.027906857
6.8412008e-06
0.027900017
6.8401423e-06
0.027893178
6.8390843e-06
0.02788634
6.8380265e-06
0.027879503
6.8369694e-06
0.027872667
6.8359132e-06
0.027865832
6.8348589e-06
0.027858998
6.8338072e-06
0.027852166
6.8327605e-06
0.027845334
6.8317216e-06
0.027838503
6.8306961e-06
0.027831674
6.8296919e-06
0.027824845
6.8287223e-06
0.027818017
6.8278075e-06
0.02781119
6.8269794e-06
0.027804364
6.826286e-06
0.027797538
6.8258013e-06
0.027790712
6.8256353e-06
0.027783886
6.8259525e-06
0.027777059
6.8269933e-06
0.02777023
6.8291061e-06
0.027763398
6.8327871e-06
0.027756559
6.8387299e-06
0.027749711
6.8478805e-06
0.027742849
6.8614904e-06
0.027735968
6.8811386e-06
0.02772906
6.9086874e-06
0.027722114
6.9460031e-06
0.027715119
6.9945966e-06
0.027708066
7.0531849e-06
0.027700946
7.1197276e-06
0.027693786
7.1599261e-06
0.027686472
7.3138229e-06
6.6658492e-06
0.016006434
-0.002451764
0.018341049
-0.0046859216
0.020904608
-0.0051744468
0.023236441
-0.0047321635
0.025166924
-0.0039254025
0.026675782
-0.0030716661
0.027810917
-0.0023117334
0.028641593
-0.0016916339
0.029236511
-0.0012111917
0.029654959
-0.00085159078
0.029944534
-0.00058906377
0.030141771
-0.00040105278
0.030273871
-0.00026849482
0.030360627
-0.00017626866
0.030416187
-0.00011285222
0.030450515
-6.97103e-05
0.030470534
-4.0653978e-05
0.030481005
-2.1271909e-05
0.030485162
-8.4647036e-06
0.030485185
-8.1890905e-08
0.030482527
5.3518773e-06
0.030478148
8.8383005e-06
0.030472676
1.1050847e-05
0.030466518
1.2438038e-05
0.030459935
1.3295811e-05
0.030453095
1.3817616e-05
0.0304461
1.4128704e-05
0.030439015
1.4309363e-05
0.03043188
1.441052e-05
0.030424718
1.4464101e-05
0.030417544
1.4489863e-05
0.030410364
1.4499853e-05
0.030403184
1.4501282e-05
0.030396004
1.4498374e-05
0.030388828
1.449353e-05
0.030381653
1.448806e-05
0.030374482
1.4482633e-05
0.030367313
1.4477558e-05
0.030360146
1.4472938e-05
0.030352982
1.4468778e-05
0.030345819
1.4465033e-05
0.030338658
1.446164e-05
0.030331498
1.4458533e-05
0.03032434
1.4455656e-05
0.030317183
1.4452957e-05
0.030310027
1.4450395e-05
0.030302873
1.4447937e-05
0.03029572
1.4445556e-05
0.030288568
1.4443234e-05
0.030281417
1.4440954e-05
0.030274267
1.4438705e-05
0.030267118
1.443648e-05
0.030259971
1.443427e-05
0.030252824
1.4432073e-05
0.030245679
1.4429885e-05
0.030238534
1.4427703e-05
0.030231391
1.4425525e-05
0.030224249
1.4423351e-05
0.030217108
1.4421179e-05
0.030209968
1.4419009e-05
0.030202829
1.441684e-05
0.030195691
1.4414673e-05
0.030188554
1.4412506e-05
0.030181418
1.4410341e-05
0.030174283
1.4408176e-05
0.03016715
1.4406012e-05
0.030160017
1.440385e-05
0.030152886
1.4401688e-05
0.030145755
1.4399526e-05
0.030138626
1.4397366e-05
0.030131498
1.4395206e-05
0.030124371
1.4393047e-05
0.030117244
1.4390888e-05
0.030110119
1.438873e-05
0.030102995
1.4386571e-05
0.030095872
1.4384414e-05
0.03008875
1.4382256e-05
0.03008163
1.4380099e-05
0.03007451
1.4377941e-05
0.030067391
1.4375784e-05
0.030060274
1.4373627e-05
0.030053157
1.437147e-05
0.030046042
1.4369313e-05
0.030038927
1.4367156e-05
0.030031814
1.4365e-05
0.030024702
1.4362844e-05
0.030017591
1.4360689e-05
0.03001048
1.4358534e-05
0.030003371
1.4356379e-05
0.029996263
1.4354224e-05
0.029989156
1.435207e-05
0.029982051
1.4349916e-05
0.029974946
1.4347762e-05
0.029967842
1.4345608e-05
0.029960739
1.4343455e-05
0.029953638
1.4341301e-05
0.029946537
1.4339147e-05
0.029939438
1.4336994e-05
0.029932339
1.433484e-05
0.029925242
1.4332686e-05
0.029918146
1.4330533e-05
0.029911051
1.4328379e-05
0.029903956
1.4326226e-05
0.029896863
1.4324073e-05
0.029889771
1.432192e-05
0.02988268
1.4319767e-05
0.029875591
1.4317615e-05
0.029868502
1.4315463e-05
0.029861414
1.4313311e-05
0.029854327
1.4311159e-05
0.029847242
1.4309008e-05
0.029840157
1.4306857e-05
0.029833074
1.4304706e-05
0.029825991
1.4302555e-05
0.02981891
1.4300404e-05
0.02981183
1.4298254e-05
0.029804751
1.4296104e-05
0.029797672
1.4293954e-05
0.029790595
1.4291805e-05
0.029783519
1.4289655e-05
0.029776444
1.4287506e-05
0.02976937
1.4285358e-05
0.029762298
1.428321e-05
0.029755226
1.4281062e-05
0.029748155
1.4278914e-05
0.029741085
1.4276767e-05
0.029734017
1.427462e-05
0.029726949
1.4272474e-05
0.029719883
1.4270327e-05
0.029712817
1.4268181e-05
0.029705753
1.4266034e-05
0.02969869
1.4263888e-05
0.029691628
1.4261741e-05
0.029684567
1.4259594e-05
0.029677506
1.4257446e-05
0.029670447
1.4255299e-05
0.029663389
1.4253151e-05
0.029656333
1.4251004e-05
0.029649277
1.4248856e-05
0.029642222
1.4246708e-05
0.029635168
1.424456e-05
0.029628116
1.4242412e-05
0.029621064
1.4240264e-05
0.029614014
1.4238117e-05
0.029606964
1.4235969e-05
0.029599916
1.4233822e-05
0.029592868
1.4231676e-05
0.029585822
1.422953e-05
0.029578777
1.4227384e-05
0.029571733
1.4225238e-05
0.02956469
1.4223093e-05
0.029557648
1.4220948e-05
0.029550607
1.4218803e-05
0.029543567
1.4216658e-05
0.029536528
1.4214514e-05
0.02952949
1.421237e-05
0.029522454
1.4210227e-05
0.029515418
1.4208084e-05
0.029508383
1.4205941e-05
0.02950135
1.4203798e-05
0.029494317
1.4201656e-05
0.029487286
1.4199513e-05
0.029480256
1.4197371e-05
0.029473226
1.419523e-05
0.029466198
1.4193088e-05
0.029459171
1.4190946e-05
0.029452145
1.4188804e-05
0.02944512
1.4186662e-05
0.029438096
1.4184519e-05
0.029431073
1.4182377e-05
0.029424051
1.4180234e-05
0.02941703
1.4178092e-05
0.029410011
1.4175949e-05
0.029402992
1.4173806e-05
0.029395974
1.4171663e-05
0.029388958
1.416952e-05
0.029381942
1.4167377e-05
0.029374928
1.4165235e-05
0.029367915
1.4163092e-05
0.029360902
1.4160949e-05
0.029353891
1.4158806e-05
0.029346881
1.4156663e-05
0.029339872
1.415452e-05
0.029332864
1.4152376e-05
0.029325857
1.4150233e-05
0.029318851
1.4148089e-05
0.029311846
1.4145945e-05
0.029304842
1.4143801e-05
0.029297839
1.4141656e-05
0.029290838
1.4139512e-05
0.029283837
1.4137368e-05
0.029276837
1.4135223e-05
0.029269839
1.4133079e-05
0.029262841
1.4130935e-05
0.029255845
1.4128791e-05
0.02924885
1.4126648e-05
0.029241855
1.4124505e-05
0.029234862
1.4122362e-05
0.02922787
1.412022e-05
0.029220879
1.4118079e-05
0.029213889
1.4115937e-05
0.0292069
1.4113797e-05
0.029199912
1.4111656e-05
0.029192925
1.4109516e-05
0.02918594
1.4107376e-05
0.029178955
1.4105236e-05
0.029171971
1.4103097e-05
0.029164989
1.4100958e-05
0.029158007
1.4098819e-05
0.029151027
1.409668e-05
0.029144047
1.4094541e-05
0.029137069
1.4092402e-05
0.029130091
1.4090264e-05
0.029123115
1.4088126e-05
0.02911614
1.4085989e-05
0.029109166
1.4083852e-05
0.029102193
1.4081715e-05
0.029095221
1.4079578e-05
0.02908825
1.4077442e-05
0.02908128
1.4075306e-05
0.029074311
1.407317e-05
0.029067343
1.4071035e-05
0.029060376
1.4068899e-05
0.029053411
1.4066764e-05
0.029046446
1.4064629e-05
0.029039483
1.4062493e-05
0.02903252
1.4060358e-05
0.029025559
1.4058223e-05
0.029018598
1.4056088e-05
0.029011639
1.4053953e-05
0.029004681
1.4051818e-05
0.028997723
1.4049683e-05
0.028990767
1.4047548e-05
0.028983812
1.4045414e-05
0.028976858
1.4043279e-05
0.028969905
1.4041145e-05
0.028962953
1.4039012e-05
0.028956002
1.4036878e-05
0.028949053
1.4034745e-05
0.028942104
1.4032612e-05
0.028935156
1.4030479e-05
0.028928209
1.4028346e-05
0.028921264
1.4026213e-05
0.028914319
1.402408e-05
0.028907376
1.4021948e-05
0.028900433
1.4019815e-05
0.028893492
1.4017682e-05
0.028886552
1.4015549e-05
0.028879612
1.4013417e-05
0.028872674
1.4011284e-05
0.028865737
1.4009151e-05
0.028858801
1.4007019e-05
0.028851866
1.4004887e-05
0.028844932
1.4002754e-05
0.028837999
1.4000622e-05
0.028831067
1.3998491e-05
0.028824136
1.3996359e-05
0.028817206
1.3994228e-05
0.028810278
1.3992097e-05
0.02880335
1.3989966e-05
0.028796424
1.3987836e-05
0.028789498
1.3985705e-05
0.028782573
1.3983575e-05
0.02877565
1.3981445e-05
0.028768728
1.3979314e-05
0.028761806
1.3977184e-05
0.028754886
1.3975054e-05
0.028747967
1.3972924e-05
0.028741049
1.3970793e-05
0.028734132
1.3968663e-05
0.028727216
1.3966533e-05
0.028720301
1.3964403e-05
0.028713387
1.3962274e-05
0.028706474
1.3960144e-05
0.028699562
1.3958015e-05
0.028692651
1.3955886e-05
0.028685741
1.3953758e-05
0.028678833
1.395163e-05
0.028671925
1.3949502e-05
0.028665018
1.3947375e-05
0.028658113
1.3945248e-05
0.028651208
1.3943121e-05
0.028644305
1.3940994e-05
0.028637403
1.3938868e-05
0.028630501
1.3936742e-05
0.028623601
1.3934615e-05
0.028616702
1.3932489e-05
0.028609804
1.3930363e-05
0.028602907
1.3928237e-05
0.028596011
1.3926112e-05
0.028589116
1.3923986e-05
0.028582222
1.392186e-05
0.028575329
1.3919735e-05
0.028568437
1.3917609e-05
0.028561546
1.3915484e-05
0.028554657
1.3913359e-05
0.028547768
1.3911234e-05
0.02854088
1.390911e-05
0.028533994
1.3906985e-05
0.028527108
1.3904861e-05
0.028520224
1.3902737e-05
0.02851334
1.3900613e-05
0.028506458
1.3898489e-05
0.028499577
1.3896365e-05
0.028492696
1.3894241e-05
0.028485817
1.3892117e-05
0.028478939
1.3889994e-05
0.028472062
1.388787e-05
0.028465186
1.3885746e-05
0.028458311
1.3883622e-05
0.028451437
1.3881498e-05
0.028444564
1.3879375e-05
0.028437692
1.3877251e-05
0.028430821
1.3875128e-05
0.028423952
1.3873005e-05
0.028417083
1.3870882e-05
0.028410215
1.3868759e-05
0.028403349
1.3866636e-05
0.028396483
1.3864513e-05
0.028389619
1.3862391e-05
0.028382755
1.3860269e-05
0.028375893
1.3858147e-05
0.028369031
1.3856025e-05
0.028362171
1.3853903e-05
0.028355312
1.3851782e-05
0.028348454
1.384966e-05
0.028341597
1.3847539e-05
0.02833474
1.3845417e-05
0.028327885
1.3843296e-05
0.028321031
1.3841175e-05
0.028314178
1.3839054e-05
0.028307327
1.3836933e-05
0.028300476
1.3834813e-05
0.028293626
1.3832692e-05
0.028286777
1.3830572e-05
0.028279929
1.3828452e-05
0.028273083
1.3826333e-05
0.028266237
1.3824214e-05
0.028259393
1.3822095e-05
0.028252549
1.3819976e-05
0.028245707
1.3817858e-05
0.028238865
1.381574e-05
0.028232025
1.3813622e-05
0.028225186
1.3811504e-05
0.028218347
1.3809387e-05
0.02821151
1.3807269e-05
0.028204674
1.3805152e-05
0.028197839
1.3803035e-05
0.028191005
1.3800918e-05
0.028184172
1.3798801e-05
0.02817734
1.3796684e-05
0.028170509
1.3794567e-05
0.028163679
1.3792451e-05
0.02815685
1.3790334e-05
0.028150023
1.3788218e-05
0.028143196
1.3786102e-05
0.02813637
1.3783986e-05
0.028129546
1.378187e-05
0.028122722
1.3779754e-05
0.028115899
1.3777639e-05
0.028109078
1.3775524e-05
0.028102258
1.3773408e-05
0.028095438
1.3771293e-05
0.02808862
1.3769178e-05
0.028081802
1.3767063e-05
0.028074986
1.3764949e-05
0.028068171
1.3762834e-05
0.028061357
1.3760719e-05
0.028054544
1.3758605e-05
0.028047732
1.375649e-05
0.028040921
1.3754376e-05
0.028034111
1.3752262e-05
0.028027302
1.3750148e-05
0.028020494
1.3748034e-05
0.028013687
1.3745921e-05
0.028006881
1.3743807e-05
0.028000077
1.3741694e-05
0.027993273
1.3739581e-05
0.02798647
1.3737468e-05
0.027979669
1.3735355e-05
0.027972868
1.3733243e-05
0.027966069
1.373113e-05
0.02795927
1.3729017e-05
0.027952473
1.3726905e-05
0.027945676
1.3724792e-05
0.027938881
1.372268e-05
0.027932087
1.3720568e-05
0.027925293
1.3718455e-05
0.027918501
1.3716343e-05
0.02791171
1.371423e-05
0.02790492
1.3712118e-05
0.027898131
1.3710006e-05
0.027891343
1.3707894e-05
0.027884556
1.3705782e-05
0.02787777
1.3703671e-05
0.027870985
1.3701559e-05
0.027864201
1.3699448e-05
0.027857419
1.3697337e-05
0.027850637
1.3695226e-05
0.027843856
1.3693115e-05
0.027837077
1.3691004e-05
0.027830298
1.3688893e-05
0.02782352
1.3686783e-05
0.027816744
1.3684673e-05
0.027809968
1.3682563e-05
0.027803194
1.3680452e-05
0.027796421
1.3678342e-05
0.027789648
1.3676233e-05
0.027782877
1.3674123e-05
0.027776107
1.3672013e-05
0.027769338
1.3669904e-05
0.027762569
1.3667795e-05
0.027755802
1.3665685e-05
0.027749036
1.3663576e-05
0.027742271
1.3661468e-05
0.027735507
1.3659359e-05
0.027728744
1.3657251e-05
0.027721982
1.3655142e-05
0.027715222
1.3653034e-05
0.027708462
1.3650927e-05
0.027701703
1.3648819e-05
0.027694945
1.3646711e-05
0.027688189
1.3644604e-05
0.027681433
1.3642496e-05
0.027674678
1.3640389e-05
0.027667925
1.3638282e-05
0.027661172
1.3636175e-05
0.027654421
1.3634068e-05
0.02764767
1.3631961e-05
0.027640921
1.3629854e-05
0.027634173
1.3627748e-05
0.027627425
1.3625641e-05
0.027620679
1.3623535e-05
0.027613934
1.3621429e-05
0.02760719
1.3619323e-05
0.027600447
1.3617217e-05
0.027593705
1.3615112e-05
0.027586964
1.3613006e-05
0.027580224
1.3610901e-05
0.027573485
1.3608796e-05
0.027566747
1.3606691e-05
0.02756001
1.3604586e-05
0.027553274
1.3602482e-05
0.027546539
1.3600377e-05
0.027539806
1.3598273e-05
0.027533073
1.3596168e-05
0.027526341
1.3594064e-05
0.027519611
1.359196e-05
0.027512881
1.3589857e-05
0.027506153
1.3587753e-05
0.027499425
1.358565e-05
0.027492699
1.3583547e-05
0.027485973
1.3581445e-05
0.027479249
1.3579343e-05
0.027472526
1.3577241e-05
0.027465803
1.357514e-05
0.027459082
1.3573039e-05
0.027452362
1.3570938e-05
0.027445643
1.3568838e-05
0.027438925
1.3566739e-05
0.027432207
1.3564639e-05
0.027425491
1.3562541e-05
0.027418776
1.3560442e-05
0.027412062
1.3558344e-05
0.02740535
1.3556247e-05
0.027398638
1.355415e-05
0.027391927
1.3552053e-05
0.027385217
1.3549957e-05
0.027378508
1.3547861e-05
0.0273718
1.3545766e-05
0.027365094
1.3543673e-05
0.027358388
1.3541581e-05
0.027351683
1.3539492e-05
0.02734498
1.353741e-05
0.027338277
1.3535336e-05
0.027331576
1.3533279e-05
0.027324875
1.3531248e-05
0.027318176
1.3529259e-05
0.027311477
1.3527338e-05
0.027304779
1.3525525e-05
0.027298082
1.3523883e-05
0.027291386
1.3522507e-05
0.02728469
1.3521542e-05
0.027277995
1.3521206e-05
0.027271299
1.352182e-05
0.027264602
1.3523858e-05
0.027257903
1.3528004e-05
0.027251201
1.3535232e-05
0.027244493
1.3546902e-05
0.027237776
1.3564868e-05
0.027231045
1.3591577e-05
0.027224297
1.3630118e-05
0.027217521
1.3684117e-05
0.02721071
1.3757245e-05
0.027203852
1.3852207e-05
0.027196938
1.3967297e-05
0.027189963
1.4094674e-05
0.027182933
1.4189761e-05
0.027175943
1.4303658e-05
1.3670785e-05
0.015635716
-0.0037124798
0.017927579
-0.0069777847
0.020380352
-0.0076272195
0.02257829
-0.006930102
0.024382103
-0.0057292151
0.02578631
-0.0044758737
0.026841402
-0.0033668256
0.027613784
-0.0024640159
0.028167622
-0.0017650294
0.028557803
-0.0012417719
0.028828287
-0.00085954769
0.029012839
-0.00058560506
0.029136644
-0.00039229921
0.029218069
-0.00025769419
0.029270277
-0.00016506003
0.029302557
-0.00010199017
0.029321382
-5.9478537e-05
0.029331209
-3.1098889e-05
0.029335076
-1.2331662e-05
0.029335032
-3.8072918e-08
0.029332447
7.9371674e-06
0.029328226
1.3058636e-05
0.029322965
1.6311799e-05
0.02931705
1.8353481e-05
0.029310728
1.9617403e-05
0.029304159
2.0387305e-05
0.02929744
2.0847045e-05
0.029290635
2.1114587e-05
0.029283781
2.1264817e-05
0.0292769
2.1344735e-05
0.029270007
2.1383458e-05
0.029263108
2.139876e-05
0.029256208
2.1401302e-05
0.029249309
2.1397338e-05
0.029242412
2.1390434e-05
0.029235517
2.1382541e-05
0.029228625
2.1374666e-05
0.029221735
2.1367271e-05
0.029214848
2.1360524e-05
0.029207962
2.1354436e-05
0.029201078
2.1348945e-05
0.029194196
2.1343965e-05
0.029187315
2.1339402e-05
0.029180435
2.1335171e-05
0.029173557
2.13312e-05
0.02916668
2.1327428e-05
0.029159804
2.1323807e-05
0.029152929
2.13203e-05
0.029146056
2.1316878e-05
0.029139183
2.1313517e-05
0.029132312
2.1310203e-05
0.029125441
2.1306922e-05
0.029118572
2.1303664e-05
0.029111704
2.1300425e-05
0.029104836
2.1297197e-05
0.02909797
2.1293979e-05
0.029091105
2.1290768e-05
0.029084241
2.1287561e-05
0.029077377
2.1284357e-05
0.029070515
2.1281156e-05
0.029063654
2.1277958e-05
0.029056794
2.1274761e-05
0.029049935
2.1271565e-05
0.029043077
2.1268371e-05
0.02903622
2.1265178e-05
0.029029364
2.1261987e-05
0.029022509
2.1258796e-05
0.029015655
2.1255607e-05
0.029008802
2.1252419e-05
0.029001951
2.1249231e-05
0.0289951
2.1246045e-05
0.02898825
2.124286e-05
0.028981401
2.1239675e-05
0.028974553
2.123649e-05
0.028967707
2.1233307e-05
0.028960861
2.1230123e-05
0.028954016
2.122694e-05
0.028947173
2.1223757e-05
0.02894033
2.1220574e-05
0.028933488
2.1217391e-05
0.028926648
2.1214209e-05
0.028919808
2.1211027e-05
0.02891297
2.1207845e-05
0.028906132
2.1204663e-05
0.028899296
2.1201483e-05
0.02889246
2.1198302e-05
0.028885626
2.1195122e-05
0.028878792
2.1191943e-05
0.02887196
2.1188764e-05
0.028865129
2.1185586e-05
0.028858298
2.1182408e-05
0.028851469
2.117923e-05
0.028844641
2.1176053e-05
0.028837813
2.1172876e-05
0.028830987
2.1169699e-05
0.028824162
2.1166522e-05
0.028817338
2.1163345e-05
0.028810515
2.1160168e-05
0.028803692
2.115699e-05
0.028796871
2.1153813e-05
0.028790051
2.1150636e-05
0.028783232
2.114746e-05
0.028776414
2.1144283e-05
0.028769597
2.1141106e-05
0.028762781
2.113793e-05
0.028755966
2.1134754e-05
0.028749152
2.1131578e-05
0.028742339
2.1128403e-05
0.028735527
2.1125228e-05
0.028728716
2.1122053e-05
0.028721906
2.1118879e-05
0.028715098
2.1115705e-05
0.02870829
2.1112532e-05
0.028701483
2.1109359e-05
0.028694677
2.1106186e-05
0.028687872
2.1103013e-05
0.028681069
2.1099841e-05
0.028674266
2.1096669e-05
0.028667464
2.1093498e-05
0.028660664
2.1090327e-05
0.028653864
2.1087156e-05
0.028647065
2.1083987e-05
0.028640268
2.1080817e-05
0.028633471
2.1077649e-05
0.028626676
2.107448e-05
0.028619881
2.1071312e-05
0.028613087
2.1068145e-05
0.028606295
2.1064978e-05
0.028599503
2.1061811e-05
0.028592713
2.1058644e-05
0.028585924
2.1055477e-05
0.028579135
2.105231e-05
0.028572348
2.1049143e-05
0.028565561
2.1045976e-05
0.028558776
2.1042808e-05
0.028551992
2.103964e-05
0.028545208