/*--------------------------------*- C++ -*----------------------------------*\
  =========                 |
  \\      /  F ield         | OpenFOAM: The Open Source CFD Toolbox
   \\    /   O peration     | Website:  https://openfoam.org
    \\  /    A nd           | Version:  6
     \\/     M anipulation  |
\*---------------------------------------------------------------------------*/
FoamFile
{
    version     2.0;
    format      ascii;
    class       volVectorField;
    location    "10";
    object      U;
}
// * * * * * * * * * * * * * * * * * * * * * * * * * * * * * * * * * * * * * //

dimensions      [0 1 -1 0 0 0 0];

internalField   nonuniform List<vector> 
5000
(
(1.5159986 0 -0.030748252)
(1.7251374 0 -0.059169796)
(1.9858761 -7.4043485e-20 -0.065777058)
(2.2455528 -7.3951691e-20 -0.060533338)
(2.4675208 0 -0.050350982)
(2.6452304 0 -0.039467973)
(2.7809323 0 -0.029731856)
(2.8813384 0 -0.021772477)
(2.9538836 0 -0.015602783)
(3.0053215 0 -0.010986209)
(3.041215 7.2947692e-20 -0.0076180421)
(3.0659018 -7.279395e-20 -0.0052078436)
(3.0826447 7.2640362e-20 -0.0035099867)
(3.0938352 0 -0.002329739)
(3.1011922 0 -0.0015188668)
(3.1059317 7.2180887e-20 -0.00096768867)
(3.1089019 0 -0.00059676505)
(3.110688 7.1875438e-20 -0.0003495345)
(3.111689 -7.1722882e-20 -0.00018629778)
(3.1121743 7.1570407e-20 -7.953639e-05)
(3.1123242 7.1417993e-20 -1.0387921e-05)
(3.112258 0 3.3943463e-05)
(3.1120541 7.1113299e-20 6.2053711e-05)
(3.1117635 7.0961001e-20 7.9662936e-05)
(3.1114189 7.0808728e-20 9.054239e-05)
(3.1110413 0 9.7155175e-05)
(3.1106437 7.0504244e-20 0.00010109479)
(3.1102345 7.0352028e-20 0.00010338175)
(3.1098185 0 0.00010466278)
(3.1093989 7.0047644e-20 0.00010534285)
(3.1089774 6.9895474e-20 0.00010567235)
(3.1085551 6.9743318e-20 0.00010580363)
(3.1081325 0 0.00010582784)
(3.1077098 6.9439049e-20 0.00010579818)
(3.1072873 6.9286935e-20 0.00010574484)
(3.106865 6.9134834e-20 0.00010568422)
(3.1064429 0 0.00010562465)
(3.106021 6.8830674e-20 0.00010556988)
(3.1055992 6.8678614e-20 0.00010552116)
(3.1051776 0 0.00010547846)
(3.1047561 6.8374535e-20 0.00010544115)
(3.1043347 6.8222517e-20 0.00010540842)
(3.1039134 6.8070511e-20 0.0001053794)
(3.1034921 0 0.00010535333)
(3.1030709 6.7766541e-20 0.00010532956)
(3.1026498 6.7614576e-20 0.00010530756)
(3.1022286 0 0.00010528689)
(3.1018076 6.7310688e-20 0.00010526723)
(3.1013865 6.7158764e-20 0.0001052483)
(3.1009655 6.7006854e-20 0.00010522993)
(3.1005446 0 0.00010521195)
(3.1001236 6.6703074e-20 0.00010519428)
(3.0997027 6.6551205e-20 0.00010517681)
(3.0992818 6.6399349e-20 0.00010515951)
(3.0988609 0 0.0001051423)
(3.0984401 6.6095678e-20 0.00010512519)
(3.0980193 6.5943863e-20 0.00010510813)
(3.0975985 0 0.00010509112)
(3.0971777 6.5640274e-20 0.00010507413)
(3.096757 6.54885e-20 0.00010505717)
(3.0963363 6.5336739e-20 0.00010504023)
(3.0959156 0 0.0001050233)
(3.095495 6.5033259e-20 0.00010500638)
(3.0950743 6.488154e-20 0.00010498948)
(3.0946537 0 0.00010497259)
(3.0942331 6.4578141e-20 0.00010495571)
(3.0938126 6.4426463e-20 0.00010493884)
(3.0933921 6.4274798e-20 0.00010492198)
(3.0929715 0 0.00010490513)
(3.0925511 6.3971509e-20 0.00010488829)
(3.0921306 6.3819885e-20 0.00010487146)
(3.0917102 0 0.00010485463)
(3.0912898 6.3516678e-20 0.00010483781)
(3.0908694 6.3365095e-20 0.000104821)
(3.090449 6.3213526e-20 0.00010480418)
(3.0900287 0 0.00010478737)
(3.0896084 6.2910428e-20 0.00010477056)
(3.0891881 6.27589e-20 0.00010475376)
(3.0887679 6.2607385e-20 0.00010473695)
(3.0883476 0 0.00010472014)
(3.0879274 6.2304397e-20 0.00010470334)
(3.0875072 6.2152924e-20 0.00010468653)
(3.0870871 0 0.00010466973)
(3.086667 6.1850018e-20 0.00010465293)
(3.0862469 6.1698585e-20 0.00010463613)
(3.0858268 6.1547167e-20 0.00010461933)
(3.0854067 0 0.00010460254)
(3.0849867 6.124437e-20 0.00010458576)
(3.0845667 6.1092993e-20 0.00010456897)
(3.0841467 0 0.00010455219)
(3.0837268 6.0790279e-20 0.00010453541)
(3.0833068 6.0638942e-20 0.00010451864)
(3.0828869 6.048762e-20 0.00010450186)
(3.082467 0 0.00010448509)
(3.0820472 6.0185016e-20 0.00010446832)
(3.0816274 6.0033734e-20 0.00010445154)
(3.0812075 5.9882467e-20 0.00010443477)
(3.0807878 0 0.000104418)
(3.080368 5.9579972e-20 0.00010440122)
(3.0799483 5.9428746e-20 0.00010438445)
(3.0795286 0 0.00010436767)
(3.0791089 5.9126334e-20 0.0001043509)
(3.0786892 5.8975149e-20 0.00010433413)
(3.0782696 5.8823978e-20 0.00010431736)
(3.07785 0 0.00010430059)
(3.0774304 5.8521676e-20 0.00010428383)
(3.0770109 5.8370546e-20 0.00010426707)
(3.0765914 0 0.00010425031)
(3.0761718 5.8068327e-20 0.00010423356)
(3.0757524 5.7917238e-20 0.0001042168)
(3.0753329 5.7766163e-20 0.00010420006)
(3.0749135 0 0.00010418331)
(3.0744941 5.7464054e-20 0.00010416656)
(3.0740747 5.7313021e-20 0.00010414982)
(3.0736553 0 0.00010413308)
(3.073236 5.7010995e-20 0.00010411634)
(3.0728167 5.6860003e-20 0.0001040996)
(3.0723974 5.6709024e-20 0.00010408286)
(3.0719782 0 0.00010406613)
(3.071559 5.6407108e-20 0.0001040494)
(3.0711397 5.6256171e-20 0.00010403268)
(3.0707206 5.6105248e-20 0.00010401595)
(3.0703014 0 0.00010399924)
(3.0698823 5.5803443e-20 0.00010398252)
(3.0694632 5.5652561e-20 0.00010396581)
(3.0690441 0 0.00010394911)
(3.068625 5.5350839e-20 0.0001039324)
(3.068206 5.5199999e-20 0.0001039157)
(3.067787 5.5049172e-20 0.000103899)
(3.067368 0 0.0001038823)
(3.0669491 5.4747561e-20 0.00010386559)
(3.0665301 5.4596776e-20 0.00010384889)
(3.0661112 0 0.00010383218)
(3.0656924 5.4295248e-20 0.00010381547)
(3.0652735 5.4144504e-20 0.00010379875)
(3.0648547 5.3993775e-20 0.00010378203)
(3.0644359 0 0.00010376531)
(3.0640171 5.3692357e-20 0.00010374859)
(3.0635983 5.3541669e-20 0.00010373186)
(3.0631796 0 0.00010371513)
(3.0627609 5.3240335e-20 0.0001036984)
(3.0623422 5.3089689e-20 0.00010368167)
(3.0619236 5.2939056e-20 0.00010366495)
(3.0615049 0 0.00010364823)
(3.0610863 5.2637833e-20 0.00010363151)
(3.0606677 5.2487242e-20 0.00010361479)
(3.0602492 5.2336665e-20 0.00010359808)
(3.0598307 0 0.00010358137)
(3.0594122 5.2035553e-20 0.00010356467)
(3.0589937 5.1885017e-20 0.00010354796)
(3.0585752 0 0.00010353127)
(3.0581568 5.1583989e-20 0.00010351457)
(3.0577384 5.1433495e-20 0.00010349788)
(3.05732 5.1283015e-20 0.00010348119)
(3.0569017 0 0.00010346451)
(3.0564833 5.0982098e-20 0.00010344782)
(3.056065 5.083166e-20 0.00010343114)
(3.0556467 0 0.00010341447)
(3.0552285 5.0530826e-20 0.0001033978)
(3.0548103 5.0380429e-20 0.00010338113)
(3.054392 5.0230047e-20 0.00010336446)
(3.0539739 5.0079679e-20 0.0001033478)
(3.0535557 4.9929324e-20 0.00010333114)
(3.0531376 4.9778984e-20 0.00010331447)
(3.0527195 4.9628657e-20 0.00010329781)
(3.0523014 0 0.00010328114)
(3.0518833 4.9328046e-20 0.00010326448)
(3.0514653 4.9177761e-20 0.00010324781)
(3.0510473 4.9027491e-20 0.00010323114)
(3.0506293 4.8877234e-20 0.00010321446)
(3.0502114 4.8726991e-20 0.00010319778)
(3.0497934 4.8576762e-20 0.0001031811)
(3.0493755 0 0.00010316442)
(3.0489577 4.8276346e-20 0.00010314774)
(3.0485398 4.8126159e-20 0.00010313106)
(3.048122 0 0.00010311437)
(3.0477042 4.7825827e-20 0.00010309768)
(3.0472864 4.7675682e-20 0.000103081)
(3.0468686 4.7525551e-20 0.00010306431)
(3.0464509 0 0.00010304762)
(3.0460332 4.7225331e-20 0.00010303093)
(3.0456155 4.7075242e-20 0.00010301424)
(3.0451979 0 0.00010299755)
(3.0447802 4.6775105e-20 0.00010298085)
(3.0443626 4.6625058e-20 0.00010296415)
(3.043945 4.6475025e-20 0.00010294745)
(3.0435275 4.6325006e-20 0.00010293074)
(3.04311 4.6175001e-20 0.00010291403)
(3.0426925 4.602501e-20 0.00010289732)
(3.042275 4.5875033e-20 0.0001028806)
(3.0418575 0 0.00010286388)
(3.0414401 4.557512e-20 0.00010284717)
(3.0410227 4.5425185e-20 0.00010283045)
(3.0406053 4.5275264e-20 0.00010281374)
(3.040188 4.5125357e-20 0.00010279703)
(3.0397706 4.4975464e-20 0.00010278032)
(3.0393533 4.4825585e-20 0.00010276362)
(3.0389361 0 0.00010274693)
(3.0385188 4.4525869e-20 0.00010273024)
(3.0381016 4.4376033e-20 0.00010271355)
(3.0376844 0 0.00010269687)
(3.0372672 4.4076401e-20 0.0001026802)
(3.0368501 4.3926606e-20 0.00010266353)
(3.0364329 4.3776826e-20 0.00010264686)
(3.0360158 0 0.00010263019)
(3.0355988 4.3477306e-20 0.00010261353)
(3.0351817 4.3327568e-20 0.00010259687)
(3.0347647 0 0.00010258021)
(3.0343477 4.3028133e-20 0.00010256355)
(3.0339307 4.2878437e-20 0.00010254689)
(3.0335138 4.2728755e-20 0.00010253024)
(3.0330968 4.2579087e-20 0.00010251359)
(3.0326799 4.2429433e-20 0.00010249694)
(3.0322631 4.2279793e-20 0.00010248029)
(3.0318462 0 0.00010246365)
(3.0314294 0 0.00010244702)
(3.0310126 4.1830957e-20 0.00010243038)
(3.0305958 4.1681374e-20 0.00010241375)
(3.0301791 4.1531804e-20 0.00010239712)
(3.0297623 0 0.0001023805)
(3.0293457 4.1232707e-20 0.00010236388)
(3.028929 4.108318e-20 0.00010234726)
(3.0285123 0 0.00010233064)
(3.0280957 4.0784168e-20 0.00010231402)
(3.0276791 0 0.0001022974)
(3.0272625 0 0.00010228078)
(3.026846 4.0335756e-20 0.00010226417)
(3.0264295 4.0186313e-20 0.00010224755)
(3.026013 4.0036885e-20 0.00010223093)
(3.0255965 3.9887471e-20 0.00010221431)
(3.02518 3.9738071e-20 0.00010219769)
(3.0247636 3.9588685e-20 0.00010218107)
(3.0243472 3.9439313e-20 0.00010216445)
(3.0239309 3.9289955e-20 0.00010214784)
(3.0235145 0 0.00010213123)
(3.0230982 3.8991282e-20 0.00010211461)
(3.0226819 3.8841967e-20 0.00010209801)
(3.0222656 3.8692666e-20 0.0001020814)
(3.0218494 3.8543379e-20 0.0001020648)
(3.0214331 0 0.0001020482)
(3.0210169 0 0.0001020316)
(3.0206008 3.8095603e-20 0.000102015)
(3.0201846 3.7946372e-20 0.0001019984)
(3.0197685 3.7797156e-20 0.0001019818)
(3.0193524 0 0.00010196521)
(3.0189363 3.7498766e-20 0.00010194861)
(3.0185203 3.7349593e-20 0.00010193201)
(3.0181043 0 0.0001019154)
(3.0176883 3.7051288e-20 0.0001018988)
(3.0172723 0 0.0001018822)
(3.0168564 0 0.0001018656)
(3.0164404 3.6603938e-20 0.000101849)
(3.0160245 3.6454849e-20 0.0001018324)
(3.0156087 3.6305775e-20 0.0001018158)
(3.0151928 3.6156715e-20 0.0001017992)
(3.014777 3.6007669e-20 0.00010178261)
(3.0143612 3.5858637e-20 0.00010176602)
(3.0139454 3.570962e-20 0.00010174943)
(3.0135297 3.5560616e-20 0.00010173284)
(3.013114 0 0.00010171626)
(3.0126983 3.5262653e-20 0.00010169968)
(3.0122826 3.5113692e-20 0.00010168309)
(3.011867 3.4964746e-20 0.00010166651)
(3.0114513 3.4815814e-20 0.00010164993)
(3.0110358 0 0.00010163335)
(3.0106202 0 0.00010161677)
(3.0102046 3.4369103e-20 0.00010160019)
(3.0097891 3.4220227e-20 0.00010158361)
(3.0093736 3.4071366e-20 0.00010156702)
(3.0089582 0 0.00010155044)
(3.0085427 3.3773687e-20 0.00010153386)
(3.0081273 3.3624869e-20 0.00010151728)
(3.0077119 0 0.0001015007)
(3.0072965 3.3327276e-20 0.00010148412)
(3.0068812 0 0.00010146755)
(3.0064659 0 0.00010145098)
(3.0060506 3.2880992e-20 0.00010143441)
(3.0056353 3.2732259e-20 0.00010141785)
(3.0052201 3.2583541e-20 0.0001014013)
(3.0048048 3.2434837e-20 0.00010138474)
(3.0043897 3.2286147e-20 0.00010136819)
(3.0039745 3.2137472e-20 0.00010135164)
(3.0035593 3.198881e-20 0.0001013351)
(3.0031442 3.1840164e-20 0.00010131855)
(3.0027291 0 0.00010130201)
(3.0023141 3.1542913e-20 0.00010128547)
(3.001899 3.1394308e-20 0.00010126893)
(3.001484 3.1245719e-20 0.00010125239)
(3.001069 3.1097143e-20 0.00010123585)
(3.000654 0 0.00010121931)
(3.0002391 0 0.00010120277)
(2.9998242 3.0651503e-20 0.00010118623)
(2.9994093 3.0502985e-20 0.00010116969)
(2.9989944 3.0354481e-20 0.00010115315)
(2.9985796 0 0.00010113662)
(2.9981648 3.0057516e-20 0.00010112008)
(2.99775 2.9909055e-20 0.00010110355)
(2.9973352 0 0.00010108702)
(2.9969205 2.9612176e-20 0.0001010705)
(2.9965058 0 0.00010105397)
(2.9960911 2.9315354e-20 0.00010103745)
(2.9956764 2.9166965e-20 0.00010102092)
(2.9952618 2.901859e-20 0.0001010044)
(2.9948471 2.887023e-20 0.00010098787)
(2.9944325 2.8721884e-20 0.00010097135)
(2.994018 2.8573552e-20 0.00010095482)
(2.9936034 2.8425234e-20 0.0001009383)
(2.9931889 2.8276931e-20 0.00010092177)
(2.9927744 2.8128642e-20 0.00010090525)
(2.99236 0 0.00010088872)
(2.9919455 2.7832108e-20 0.00010087219)
(2.9915311 2.7683862e-20 0.00010085566)
(2.9911167 2.7535631e-20 0.00010083914)
(2.9907024 2.7387414e-20 0.00010082261)
(2.990288 0 0.00010080609)
(2.9898737 0 0.00010078956)
(2.9894594 2.6942849e-20 0.00010077304)
(2.9890451 2.679469e-20 0.00010075652)
(2.9886309 2.6646545e-20 0.00010074001)
(2.9882167 0 0.00010072349)
(2.9878025 0 0.00010070698)
(2.9873883 0 0.00010069046)
(2.9869742 0 0.00010067395)
(2.9865601 0 0.00010065744)
(2.986146 0 0.00010064093)
(2.9857319 0 0.00010062442)
(2.9853179 2.5461903e-20 0.00010060792)
(2.9849039 0 0.00010059141)
(2.9844899 0 0.0001005749)
(2.9840759 2.50179e-20 0.0001005584)
(2.983662 0 0.00010054189)
(2.9832481 0 0.00010052539)
(2.9828342 0 0.00010050889)
(2.9824203 2.4426098e-20 0.00010049239)
(2.9820065 0 0.00010047589)
(2.9815927 0 0.0001004594)
(2.9811789 2.3982399e-20 0.00010044291)
(2.9807651 0 0.00010042642)
(2.9803514 0 0.00010040994)
(2.9799377 0 0.00010039346)
(2.979524 2.3391001e-20 0.00010037698)
(2.9791103 0 0.00010036051)
(2.9786967 0 0.00010034403)
(2.9782831 0 0.00010032756)
(2.9778695 2.2799835e-20 0.00010031109)
(2.9774559 0 0.00010029463)
(2.9770424 0 0.00010027816)
(2.9766289 0 0.00010026169)
(2.9762154 0 0.00010024523)
(2.9758019 0 0.00010022876)
(2.9753885 0 0.0001002123)
(2.9749751 2.1765852e-20 0.00010019583)
(2.9745617 0 0.00010017937)
(2.9741483 0 0.0001001629)
(2.973735 2.1322934e-20 0.00010014645)
(2.9733217 0 0.00010012998)
(2.9729084 0 0.00010011353)
(2.9724952 0 0.00010009707)
(2.9720819 2.0732579e-20 0.00010008062)
(2.9716687 0 0.00010006416)
(2.9712555 0 0.00010004771)
(2.9708424 2.0289965e-20 0.00010003126)
(2.9704292 0 0.00010001481)
(2.9700161 0 9.9998361e-05)
(2.969603 0 9.9981915e-05)
(2.96919 1.9700017e-20 9.9965465e-05)
(2.9687769 0 9.9949019e-05)
(2.9683639 0 9.993257e-05)
(2.9679509 0 9.9916126e-05)
(2.967538 1.9110301e-20 9.9899678e-05)
(2.967125 0 9.9883235e-05)
(2.9667121 0 9.986679e-05)
(2.9662993 0 9.985035e-05)
(2.9658864 0 9.9833907e-05)
(2.9654736 0 9.981747e-05)
(2.9650607 0 9.9801031e-05)
(2.964648 1.8078858e-20 9.9784597e-05)
(2.9642352 0 9.9768161e-05)
(2.9638225 0 9.975173e-05)
(2.9634098 1.763703e-20 9.9735296e-05)
(2.9629971 0 9.9718866e-05)
(2.9625844 0 9.9702433e-05)
(2.9621718 0 9.9686004e-05)
(2.9617592 1.7048129e-20 9.9669571e-05)
(2.9613466 0 9.9653142e-05)
(2.960934 0 9.9636708e-05)
(2.9605215 1.6606607e-20 9.9620278e-05)
(2.960109 0 9.9603844e-05)
(2.9596965 0 9.9587413e-05)
(2.9592841 0 9.9570979e-05)
(2.9588716 1.6018115e-20 9.9554549e-05)
(2.9584592 0 9.9538116e-05)
(2.9580468 0 9.9521688e-05)
(2.9576345 0 9.9505256e-05)
(2.9572221 1.5429857e-20 9.948883e-05)
(2.9568098 0 9.9472402e-05)
(2.9563976 0 9.9455979e-05)
(2.9559853 0 9.9439554e-05)
(2.9555731 0 9.9423134e-05)
(2.9551609 0 9.9406712e-05)
(2.9547487 0 9.9390295e-05)
(2.9543365 1.4400968e-20 9.9373875e-05)
(2.9539244 0 9.935746e-05)
(2.9535123 0 9.9341042e-05)
(2.9531002 1.3960235e-20 9.9324629e-05)
(2.9526882 0 9.9308213e-05)
(2.9522761 0 9.9291801e-05)
(2.9518641 0 9.9275386e-05)
(2.9514521 1.3372796e-20 9.9258976e-05)
(2.9510402 0 9.9242563e-05)
(2.9506283 0 9.9226156e-05)
(2.9502163 0 9.9209745e-05)
(2.9498045 0 9.9193341e-05)
(2.9493926 0 9.9176933e-05)
(2.9489808 0 9.9160532e-05)
(2.948569 1.2345343e-20 9.9144128e-05)
(2.9481572 0 9.912773e-05)
(2.9477454 0 9.911133e-05)
(2.9473337 0 9.9094935e-05)
(2.946922 1.175855e-20 9.9078538e-05)
(2.9465103 0 9.9062146e-05)
(2.9460987 0 9.9045751e-05)
(2.9456871 0 9.9029361e-05)
(2.9452755 0 9.9012967e-05)
(2.9448639 0 9.8996579e-05)
(2.9444523 0 9.8980186e-05)
(2.9440408 1.0732228e-20 9.8963799e-05)
(2.9436293 0 9.8947409e-05)
(2.9432178 0 9.8931023e-05)
(2.9428064 1.0292596e-20 9.8914634e-05)
(2.9423949 0 9.8898251e-05)
(2.9419835 0 9.8881864e-05)
(2.9415722 0 9.8865483e-05)
(2.9411608 9.7066268e-21 9.88491e-05)
(2.9407495 0 9.8832722e-05)
(2.9403382 0 9.8816341e-05)
(2.9399269 0 9.8799967e-05)
(2.9395157 0 9.8783589e-05)
(2.9391044 0 9.8767217e-05)
(2.9386932 0 9.8750842e-05)
(2.9382821 8.6817477e-21 9.8734473e-05)
(2.9378709 0 9.8718101e-05)
(2.9374598 0 9.8701734e-05)
(2.9370487 0 9.8685364e-05)
(2.9366376 8.0964272e-21 9.8668999e-05)
(2.9362266 0 9.8652631e-05)
(2.9358155 0 9.8636269e-05)
(2.9354045 0 9.8619905e-05)
(2.9349936 0 9.8603547e-05)
(2.9345826 0 9.8587187e-05)
(2.9341717 0 9.8570835e-05)
(2.9337608 7.0726849e-21 9.8554481e-05)
(2.9333499 0 9.8538136e-05)
(2.9329391 0 9.8521789e-05)
(2.9325283 6.63416e-21 9.8505452e-05)
(2.9321175 0 9.8489115e-05)
(2.9317067 0 9.8472787e-05)
(2.9312959 0 9.8456459e-05)
(2.9308852 6.0496673e-21 9.8440141e-05)
(2.9304745 0 9.8423823e-05)
(2.9300638 0 9.8407516e-05)
(2.9296532 0 9.8391208e-05)
(2.9292426 0 9.8374911e-05)
(2.928832 0 9.8358613e-05)
(2.9284214 0 9.8342325e-05)
(2.9280109 5.0273755e-21 9.8326036e-05)
(2.9276003 0 9.8309757e-05)
(2.9271898 0 9.8293478e-05)
(2.9267794 0 9.8277211e-05)
(2.9263689 4.443535e-21 9.8260947e-05)
(2.9259585 0 9.8244703e-05)
(2.9255481 0 9.8228478e-05)
(2.9251377 0 9.82123e-05)
(2.9247274 0 9.8196187e-05)
(2.924317 0 9.81802e-05)
(2.9239067 0 9.8164407e-05)
(2.9234965 3.4223856e-21 9.8148951e-05)
(2.9230862 0 9.8134026e-05)
(2.922676 0 9.8119973e-05)
(2.9222657 0 9.8107295e-05)
(2.9218555 2.8391986e-21 9.8096795e-05)
(2.9214453 0 9.8089684e-05)
(2.921035 0 9.8087822e-05)
(2.9206247 2.4019645e-21 9.8093982e-05)
(2.9202144 0 9.8112302e-05)
(2.9198038 0 9.8148843e-05)
(2.919393 0 9.8212391e-05)
(2.9189819 0 9.8315459e-05)
(2.9185702 0 9.8475551e-05)
(2.9181576 0 9.8716566e-05)
(2.9177438 1.382272e-21 9.9070136e-05)
(2.9173282 0 9.9576221e-05)
(2.91691 0 0.00010028202)
(2.9164884 0 0.00010123501)
(2.9160623 7.9991979e-22 0.00010247368)
(2.9156302 0 0.00010396738)
(2.915192 0 0.00010566588)
(2.914743 0 0.00010674624)
(2.914314 0 0.00011043933)
(2.9137278 0 9.4278846e-05)
(1.4972096 0 -0.092068471)
(1.7069634 0 -0.1767453)
(1.9634392 -1.2346579e-19 -0.19598003)
(2.2166133 -1.2329743e-19 -0.17986658)
(2.4318114 0 -0.14946966)
(2.6035281 0 -0.11710339)
(2.7344978 0 -0.088208098)
(2.8313821 0 -0.064602797)
(2.9014103 0 -0.046307925)
(2.9510983 0 -0.032616189)
(2.9857999 1.2160011e-19 -0.022623801)
(3.0096884 -1.2134547e-19 -0.015470706)
(3.0259041 1.2109126e-19 -0.010429703)
(3.0367515 0 -0.0069240936)
(3.0438887 0 -0.0045146678)
(3.0484899 1.203311e-19 -0.0028762705)
(3.0513754 0 -0.0017732741)
(3.0531113 1.198258e-19 -0.0010378259)
(3.0540844 -1.1957341e-19 -0.00055205857)
(3.0545559 1.1932114e-19 -0.00023423345)
(3.0547008 1.1906896e-19 -2.830027e-05)
(3.0546351 0 0.00010377918)
(3.0544351 1.1856478e-19 0.00018756763)
(3.0541503 1.1831276e-19 0.00024008202)
(3.0538127 1.1806077e-19 0.00027254556)
(3.0534427 0 0.0002922913)
(3.0530532 1.1755686e-19 0.00030406501)
(3.0526522 1.1730494e-19 0.0003109074)
(3.0522446 0 0.00031474614)
(3.0518333 1.1680114e-19 0.00031678902)
(3.0514202 1.1654927e-19 0.00031778308)
(3.0510061 1.1629741e-19 0.00031818333)
(3.0505918 0 0.00031826204)
(3.0501775 1.1579374e-19 0.00031817842)
(3.0497632 1.1554193e-19 0.00031802287)
(3.0493492 1.1529013e-19 0.00031784461)
(3.0489353 0 0.00031766873)
(3.0485217 1.1478658e-19 0.00031750661)
(3.0481081 1.1453482e-19 0.0003173621)
(3.0476948 0 0.00031723526)
(3.0472815 1.1403136e-19 0.00031712425)
(3.0468683 1.1377965e-19 0.00031702672)
(3.0464552 1.1352795e-19 0.00031694012)
(3.0460421 0 0.00031686227)
(3.0456292 1.130246e-19 0.00031679117)
(3.0452162 1.1277295e-19 0.00031672532)
(3.0448033 0 0.00031666338)
(3.0443905 1.1226968e-19 0.00031660442)
(3.0439776 1.1201807e-19 0.00031654765)
(3.0435648 1.1176648e-19 0.00031649252)
(3.0431521 0 0.00031643856)
(3.0427393 1.1126333e-19 0.0003163855)
(3.0423266 1.1101178e-19 0.00031633304)
(3.041914 1.1076024e-19 0.00031628106)
(3.0415013 0 0.00031622939)
(3.0410887 1.1025721e-19 0.00031617798)
(3.0406761 1.1000572e-19 0.00031612672)
(3.0402635 0 0.00031607561)
(3.0398509 1.0950278e-19 0.00031602457)
(3.0394384 1.0925133e-19 0.00031597361)
(3.0390259 1.089999e-19 0.0003159227)
(3.0386134 0 0.00031587185)
(3.038201 1.0849707e-19 0.00031582102)
(3.0377885 1.0824568e-19 0.00031577023)
(3.0373761 0 0.00031571947)
(3.0369638 1.0774294e-19 0.00031566875)
(3.0365514 1.074916e-19 0.00031561805)
(3.0361391 1.0724026e-19 0.00031556739)
(3.0357268 0 0.00031551676)
(3.0353145 1.0673764e-19 0.00031546615)
(3.0349022 1.0648636e-19 0.00031541557)
(3.03449 0 0.00031536501)
(3.0340778 1.0598382e-19 0.00031531447)
(3.0336656 1.0573258e-19 0.00031526394)
(3.0332535 1.0548135e-19 0.00031521342)
(3.0328413 0 0.0003151629)
(3.0324292 1.0497894e-19 0.00031511239)
(3.0320171 1.0472775e-19 0.00031506189)
(3.0316051 1.0447658e-19 0.00031501138)
(3.031193 0 0.00031496088)
(3.030781 1.0397428e-19 0.00031491038)
(3.030369 1.0372316e-19 0.00031485988)
(3.0299571 0 0.00031480939)
(3.0295451 1.0322095e-19 0.0003147589)
(3.0291332 1.0296987e-19 0.00031470843)
(3.0287213 1.027188e-19 0.00031465796)
(3.0283095 0 0.00031460751)
(3.0278976 1.0221671e-19 0.00031455707)
(3.0274858 1.0196569e-19 0.00031450663)
(3.027074 0 0.00031445621)
(3.0266623 1.0146369e-19 0.00031440579)
(3.0262505 1.0121271e-19 0.00031435539)
(3.0258388 1.0096175e-19 0.00031430498)
(3.0254271 0 0.00031425458)
(3.0250155 1.0045987e-19 0.00031420418)
(3.0246038 1.0020895e-19 0.00031415378)
(3.0241922 9.9958044e-20 0.00031410337)
(3.0237806 0 0.00031405297)
(3.023369 9.945628e-20 0.00031400256)
(3.0229575 9.9205421e-20 0.00031395216)
(3.022546 0 0.00031390175)
(3.0221345 9.8703747e-20 0.00031385135)
(3.021723 9.8452932e-20 0.00031380095)
(3.0213116 9.8202132e-20 0.00031375056)
(3.0209001 0 0.00031370018)
(3.0204887 9.7700577e-20 0.0003136498)
(3.0200774 9.7449822e-20 0.00031359943)
(3.019666 0 0.00031354908)
(3.0192547 9.6948357e-20 0.00031349872)
(3.0188434 9.6697647e-20 0.00031344838)
(3.0184321 9.6446951e-20 0.00031339805)
(3.0180209 0 0.00031334772)
(3.0176096 9.5945605e-20 0.0003132974)
(3.0171984 9.5694955e-20 0.00031324709)
(3.0167873 0 0.00031319678)
(3.0163761 9.5193699e-20 0.00031314647)
(3.015965 9.4943093e-20 0.00031309617)
(3.0155539 9.4692502e-20 0.00031304589)
(3.0151428 0 0.0003129956)
(3.0147318 9.4191366e-20 0.00031294533)
(3.0143207 9.394082e-20 0.00031289507)
(3.0139097 9.3690289e-20 0.00031284482)
(3.0134987 0 0.00031279458)
(3.0130878 9.3189273e-20 0.00031274436)
(3.0126769 9.2938788e-20 0.00031269414)
(3.0122659 0 0.00031264394)
(3.0118551 9.2437861e-20 0.00031259374)
(3.0114442 9.2187421e-20 0.00031254355)
(3.0110334 9.1936995e-20 0.00031249336)
(3.0106226 0 0.00031244317)
(3.0102118 9.143619e-20 0.00031239298)
(3.009801 9.1185809e-20 0.00031234278)
(3.0093903 0 0.00031229257)
(3.0089796 9.0685094e-20 0.00031224235)
(3.0085689 9.0434759e-20 0.00031219212)
(3.0081582 9.0184439e-20 0.00031214189)
(3.0077476 0 0.00031209163)
(3.007337 8.9683844e-20 0.00031204138)
(3.0069264 8.943357e-20 0.00031199111)
(3.0065158 0 0.00031194084)
(3.0061053 8.8933066e-20 0.00031189057)
(3.0056948 8.8682836e-20 0.00031184031)
(3.0052843 8.8432622e-20 0.00031179005)
(3.0048738 0 0.0003117398)
(3.0044634 8.7932239e-20 0.00031168955)
(3.004053 8.7682071e-20 0.00031163932)
(3.0036426 8.7431917e-20 0.0003115891)
(3.0032322 0 0.00031153889)
(3.0028218 8.6931656e-20 0.00031148869)
(3.0024115 8.6681547e-20 0.00031143851)
(3.0020012 0 0.00031138833)
(3.001591 8.6181377e-20 0.00031133816)
(3.0011807 8.5931315e-20 0.000311288)
(3.0007705 8.5681267e-20 0.00031123785)
(3.0003603 0 0.0003111877)
(2.9999501 8.5181218e-20 0.00031113757)
(2.99954 8.4931217e-20 0.00031108745)
(2.9991299 0 0.00031103734)
(2.9987198 8.4431259e-20 0.00031098724)
(2.9983097 8.4181303e-20 0.00031093715)
(2.9978996 8.3931363e-20 0.00031088706)
(2.9974896 8.3681437e-20 0.00031083698)
(2.9970796 8.3431527e-20 0.00031078691)
(2.9966696 8.3181632e-20 0.00031073684)
(2.9962597 8.2931753e-20 0.00031068676)
(2.9958498 0 0.00031063668)
(2.9954399 8.2432039e-20 0.0003105866)
(2.99503 8.2182205e-20 0.00031053651)
(2.9946201 8.1932387e-20 0.00031048641)
(2.9942103 8.1682584e-20 0.0003104363)
(2.9938005 8.1432796e-20 0.00031038618)
(2.9933907 8.1183023e-20 0.00031033606)
(2.992981 0 0.00031028593)
(2.9925712 8.0683524e-20 0.0003102358)
(2.9921615 8.0433798e-20 0.00031018566)
(2.9917518 0 0.00031013553)
(2.9913422 7.993439e-20 0.00031008538)
(2.9909326 7.968471e-20 0.00031003525)
(2.9905229 7.9435045e-20 0.0003099851)
(2.9901134 0 0.00030993496)
(2.9897038 7.893576e-20 0.00030988481)
(2.9892943 7.8686141e-20 0.00030983465)
(2.9888848 0 0.00030978449)
(2.9884753 7.8186949e-20 0.00030973432)
(2.9880658 7.7937377e-20 0.00030968413)
(2.9876564 7.7687819e-20 0.00030963394)
(2.987247 7.7438277e-20 0.00030958374)
(2.9868376 7.718875e-20 0.00030953353)
(2.9864282 7.6939239e-20 0.0003094833)
(2.9860189 7.6689743e-20 0.00030943308)
(2.9856096 0 0.00030938285)
(2.9852003 7.6190798e-20 0.00030933262)
(2.984791 7.5941348e-20 0.00030928239)
(2.9843818 7.5691914e-20 0.00030923217)
(2.9839726 7.5442496e-20 0.00030918196)
(2.9835634 7.5193093e-20 0.00030913177)
(2.9831542 7.4943705e-20 0.00030908158)
(2.9827451 0 0.00030903142)
(2.982336 7.4444976e-20 0.00030898127)
(2.9819269 7.4195635e-20 0.00030893113)
(2.9815178 0 0.00030888101)
(2.9811088 7.3696999e-20 0.0003088309)
(2.9806998 7.3447704e-20 0.0003087808)
(2.9802908 7.3198425e-20 0.00030873072)
(2.9798818 0 0.00030868064)
(2.9794729 7.2699913e-20 0.00030863057)
(2.979064 7.2450681e-20 0.0003085805)
(2.9786551 0 0.00030853044)
(2.9782462 7.1952262e-20 0.00030848038)
(2.9778374 7.1703076e-20 0.00030843033)
(2.9774285 7.1453906e-20 0.00030838029)
(2.9770197 7.1204751e-20 0.00030833025)
(2.976611 7.0955612e-20 0.00030828023)
(2.9762022 7.0706488e-20 0.00030823021)
(2.9757935 0 0.0003081802)
(2.9753848 0 0.0003081302)
(2.9749761 6.9959211e-20 0.00030808022)
(2.9745675 6.9710149e-20 0.00030803024)
(2.9741589 6.9461104e-20 0.00030798028)
(2.9737503 0 0.00030793032)
(2.9733417 6.8963059e-20 0.00030788037)
(2.9729332 6.871406e-20 0.00030783043)
(2.9725246 0 0.00030778049)
(2.9721161 6.821611e-20 0.00030773055)
(2.9717077 0 0.00030768061)
(2.9712992 0 0.00030763068)
(2.9708908 6.7469301e-20 0.00030758074)
(2.9704824 6.7220396e-20 0.0003075308)
(2.970074 6.6971507e-20 0.00030748085)
(2.9696657 6.6722633e-20 0.00030743091)
(2.9692574 6.6473775e-20 0.00030738097)
(2.968849 6.6224933e-20 0.00030733103)
(2.9684408 6.5976107e-20 0.0003072811)
(2.9680325 6.5727296e-20 0.00030723117)
(2.9676243 0 0.00030718125)
(2.9672161 6.5229722e-20 0.00030713134)
(2.9668079 6.4980958e-20 0.00030708143)
(2.9663998 6.473221e-20 0.00030703153)
(2.9659916 6.4483478e-20 0.00030698164)
(2.9655835 0 0.00030693175)
(2.9651754 0 0.00030688187)
(2.9647674 6.3737376e-20 0.00030683199)
(2.9643594 6.3488707e-20 0.00030678212)
(2.9639514 6.3240054e-20 0.00030673224)
(2.9635434 0 0.00030668236)
(2.9631354 6.2742794e-20 0.00030663248)
(2.9627275 6.2494188e-20 0.0003065826)
(2.9623196 0 0.00030653271)
(2.9619117 6.1997023e-20 0.00030648282)
(2.9615038 0 0.00030643293)
(2.961096 0 0.00030638304)
(2.9606882 6.1251395e-20 0.00030633316)
(2.9602804 6.1002884e-20 0.00030628327)
(2.9598726 6.0754388e-20 0.0003062334)
(2.9594649 6.0505909e-20 0.00030618353)
(2.9590572 6.0257445e-20 0.00030613366)
(2.9586495 6.0008997e-20 0.00030608381)
(2.9582418 5.9760565e-20 0.00030603396)
(2.9578342 5.9512149e-20 0.00030598412)
(2.9574266 0 0.00030593428)
(2.957019 5.9015365e-20 0.00030588445)
(2.9566114 5.8766996e-20 0.00030583463)
(2.9562039 5.8518644e-20 0.0003057848)
(2.9557964 5.8270307e-20 0.00030573498)
(2.9553889 0 0.00030568515)
(2.9549814 0 0.00030563533)
(2.954574 5.7525392e-20 0.0003055855)
(2.9541666 5.7277119e-20 0.00030553567)
(2.9537592 5.7028862e-20 0.00030548584)
(2.9533518 0 0.000305436)
(2.9529445 5.6532396e-20 0.00030538618)
(2.9525372 5.6284186e-20 0.00030533635)
(2.9521299 0 0.00030528653)
(2.9517226 5.5787815e-20 0.00030523672)
(2.9513154 0 0.00030518692)
(2.9509082 0 0.00030513713)
(2.950501 5.5043379e-20 0.00030508735)
(2.9500938 5.4795266e-20 0.00030503759)
(2.9496866 5.4547168e-20 0.00030498783)
(2.9492795 5.4299086e-20 0.00030493809)
(2.9488724 5.4051021e-20 0.00030488835)
(2.9484654 5.3802971e-20 0.00030483863)
(2.9480583 5.3554938e-20 0.00030478891)
(2.9476513 5.330692e-20 0.0003047392)
(2.9472443 0 0.00030468949)
(2.9468373 5.2810933e-20 0.00030463978)
(2.9464304 5.2562964e-20 0.00030459007)
(2.9460235 5.2315011e-20 0.00030454036)
(2.9456166 5.2067073e-20 0.00030449066)
(2.9452097 0 0.00030444095)
(2.9448028 0 0.00030439125)
(2.944396 5.1323358e-20 0.00030434155)
(2.9439892 5.1075485e-20 0.00030429186)
(2.9435824 5.0827628e-20 0.00030424216)
(2.9431757 0 0.00030419248)
(2.942769 5.0331962e-20 0.00030414279)
(2.9423622 5.0084154e-20 0.00030409312)
(2.9419556 0 0.00030404345)
(2.9415489 4.9588585e-20 0.00030399378)
(2.9411423 0 0.00030394412)
(2.9407357 4.909308e-20 0.00030389446)
(2.9403291 4.8845352e-20 0.00030384481)
(2.9399226 4.859764e-20 0.00030379515)
(2.939516 4.8349945e-20 0.0003037455)
(2.9391095 4.8102265e-20 0.00030369584)
(2.938703 4.7854602e-20 0.00030364618)
(2.9382966 4.7606954e-20 0.00030359652)
(2.9378901 4.7359323e-20 0.00030354686)
(2.9374837 4.7111708e-20 0.0003034972)
(2.9370774 0 0.00030344753)
(2.936671 4.6616527e-20 0.00030339787)
(2.9362647 4.6368961e-20 0.00030334821)
(2.9358584 4.612141e-20 0.00030329855)
(2.9354521 4.5873877e-20 0.00030324889)
(2.9350458 0 0.00030319923)
(2.9346396 0 0.00030314958)
(2.9342334 4.5131372e-20 0.00030309994)
(2.9338272 4.4883903e-20 0.00030305029)
(2.933421 4.463645e-20 0.00030300066)
(2.9330149 0 0.00030295103)
(2.9326088 0 0.00030290141)
(2.9322027 0 0.00030285179)
(2.9317966 0 0.00030280218)
(2.9313906 0 0.00030275256)
(2.9309846 0 0.00030270295)
(2.9305786 0 0.00030265335)
(2.9301726 4.2657414e-20 0.00030260374)
(2.9297667 0 0.00030255414)
(2.9293608 0 0.00030250453)
(2.9289549 4.1915544e-20 0.00030245493)
(2.928549 0 0.00030240534)
(2.9281432 0 0.00030235575)
(2.9277374 0 0.00030230616)
(2.9273316 4.0926612e-20 0.00030225658)
(2.9269258 0 0.00030220701)
(2.9265201 0 0.00030215745)
(2.9261144 4.0185085e-20 0.00030210789)
(2.9257087 0 0.00030205835)
(2.925303 0 0.00030200882)
(2.9248973 0 0.0003019593)
(2.9244917 3.9196612e-20 0.00030190978)