/*--------------------------------*- C++ -*----------------------------------*\
  =========                 |
  \\      /  F ield         | OpenFOAM: The Open Source CFD Toolbox
   \\    /   O peration     | Website:  https://openfoam.org
    \\  /    A nd           | Version:  6
     \\/     M anipulation  |
\*---------------------------------------------------------------------------*/
FoamFile
{
    version     2.0;
    format      ascii;
    class       volVectorField;
    location    "10000";
    object      grad(p);
}
// * * * * * * * * * * * * * * * * * * * * * * * * * * * * * * * * * * * * * //

dimensions      [0 1 -2 0 0 0 0];

internalField   nonuniform List<vector> 
2250
(
(-164542.63 1.8676598e-12 -12414.569)
(-240004.63 1.8474482e-12 840.42021)
(-186460.36 -1.8384531e-12 -2184.3203)
(-199852.7 0 615.71834)
(-190281.11 0 -435.65348)
(-195571.56 0 247.95458)
(-192644.51 0 -135.29314)
(-194500.78 0 82.706767)
(-193487.08 0 -45.127862)
(-194148.85 0 30.095302)
(-193807.44 0 -15.052684)
(-194057.28 0 7.5288606)
(-193955.98 -1.7198248e-12 -7.5313808)
(-194063.26 0 0)
(-194045.99 -1.6962006e-12 0)
(-194102.25 0 0)
(-194115 0 7.5414781)
(-194153.25 0 -5.2694278e-08)
(-194177.25 -1.6488403e-12 0)
(-194209.5 1.6369758e-12 7.5490689)
(-194236.5 1.625102e-12 -5.2747335e-08)
(-194267.25 0 0)
(-194295.75 0 0)
(-194325 0 7.5592138)
(-194353.5 0 0)
(-194383.5 -1.5655844e-12 0)
(-194412.75 0 0)
(-194442 0 0)
(-194471.25 0 0)
(-194500.5 0 0)
(-194530.5 0 0)
(-194559.75 -1.4938365e-12 0)
(-194589 1.4818437e-12 0)
(-194618.25 0 7.5846958)
(-194647.5 0 0)
(-194676.75 0 0)
(-194706.75 1.4337728e-12 0)
(-194736.75 -1.42173e-12 0)
(-194765.25 0 0)
(-194795.25 0 0)
(-194825.25 0 0)
(-194854.5 0 0)
(-194883.75 0 0)
(-194913.75 -1.3492623e-12 0)
(-194943.75 0 0)
(-194973 0 0)
(-195003 0 0)
(-195033 0 0)
(-195062.25 0 7.6232424)
(-195091.5 -1.2764308e-12 0)
(-195122.25 0 0)
(-195152.25 0 7.6309988)
(-195181.5 0 0)
(-195211.5 0 0)
(-195241.5 0 0)
(-195271.5 -1.2032331e-12 0)
(-195301.5 0 0)
(-195331.5 0 7.646559)
(-195360.75 -1.1664961e-12 7.6491586)
(-195390.75 -1.1542299e-12 0)
(-195421.5 0 0)
(-195451.5 0 0)
(-195481.5 0 0)
(-195512.25 0 0)
(-195542.25 -1.0927442e-12 7.664793)
(-195571.5 -1.080416e-12 0)
(-195602.25 0 0)
(-195632.25 0 7.6726343)
(-195662.25 0 0)
(-195693 0 0)
(-195723 -1.0186196e-12 0)
(-195753.75 -1.0062291e-12 0)
(-195783.75 -9.9382809e-13 7.6857387)
(-195813.67 0 0)
(-195844.5 -9.6899481e-13 1.5381986)
(-195874.87 0 1.5387246)
(-195905.25 -9.4411964e-13 2.3088763)
(-195935.62 -9.3166629e-13 1.5397776)
(-195966.15 0 1.5403046)
(-195996.6 0 2.3112481)
(-196027.12 -8.9424317e-13 1.5413598)
(-196057.65 0 2.3128319)
(-196088.17 -8.6924171e-13 1.5424165)
(-196118.85 -8.567251e-13 1.5429453)
(-196149.37 0 2.3152118)
(-196179.97 0 1.5440041)
(-196210.72 0 1.5445341)
(-196241.4 0 2.3175966)
(-196272 -7.9398313e-13 2.3183926)
(-196302.75 -7.8140282e-13 1.5461261)
(-196333.5 -7.6881186e-13 1.5466575)
(-196364.25 0 1.5471893)
(-196395.07 -7.4359793e-13 1.5477214)
(-196425.9 0 1.5482539)
(-196456.8 -7.183412e-13 1.5487868)
(-196487.62 -7.0569674e-13 2.32398)
(-196518.45 -6.9304156e-13 1.5498536)
(-196549.35 0 1.5503876)
(-196580.32 -6.6769894e-13 1.550922)
(-196611.3 -6.5501146e-13 1.5514566)
(-196642.27 -6.4231322e-13 1.5519917)
(-196673.32 -6.2960415e-13 1.5525272)
(-196704.37 -6.1688428e-13 1.553063)
(-196735.35 0 2.3303988)
(-196766.4 0 1.5541357)
(-196797.6 -5.7865967e-13 1.5546726)
(-196828.72 -5.6589642e-13 1.55521)
(-196859.85 -5.5312229e-13 1.5557476)
(-196891.05 0 1.5562857)
(-196922.25 0 1.5568241)
(-196953.45 -5.1473452e-13 2.3360443)
(-196984.65 -5.0191676e-13 1.557902)
(-197016 0 1.5584416)
(-197047.27 0 2.3384722)
(-197078.55 -4.6339778e-13 1.5595217)
(-197109.97 -4.5053618e-13 1.5600624)
(-197141.32 -4.3766357e-13 1.5606034)
(-197172.75 0 1.5611448)
(-197204.17 0 1.5616866)
(-197235.6 -3.9897967e-13 1.5622288)
(-197267.02 -3.8606297e-13 2.344157)
(-197298.52 -3.7313521e-13 1.5633142)
(-197330.1 -3.6019637e-13 1.5638575)
(-197361.6 -3.4724645e-13 1.5644012)
(-197393.17 0 1.5649452)
(-197424.82 -3.2131329e-13 1.5654897)
(-197456.4 -3.0833004e-13 2.3490517)
(-197487.97 -2.9533565e-13 1.5665796)
(-197519.7 -2.823301e-13 1.5671252)
(-197551.42 -2.6931338e-13 1.5676711)
(-197583.15 0 1.5682175)
(-197614.87 0 1.5687642)
(-197646.67 -2.3019612e-13 1.5693112)
(-197678.32 -2.1713462e-13 2.3547881)
(-197710.27 -2.040619e-13 1.5704066)
(-197742 0 1.5709548)
(-197774.1 0 1.5715034)
(-197805.52 -1.6477612e-13 1.5720524)
(-197838.22 -1.5165842e-13 1.5726018)
(-197868.9 -1.3852916e-13 1.5731515)
(-197903.1 -1.2538902e-13 1.5737017)
(-197931.32 -1.1223683e-13 2.3613783)
(-197969.52 0 1.3385827)
(-197991.21 -8.5898811e-14 2.5205671)
(-198040.67 -7.2715157e-14 0.39397654)
(-198043.55 -5.9514397e-14 3.9411456)
(-198124.75 -4.6311847e-14 -2.0501139)
(-198071.39 -3.3081762e-14 8.1244522)
(-198249.19 0 -11.204629)
(-197948.04 0 20.641116)
(-163218.83 -5.6025731e-12 -31985.331)
(-238981.58 -5.5423295e-12 -1193.0965)
(-186483.06 1.8384531e-12 -4188.4904)
(-199677.89 0 825.96362)
(-190317.89 3.6285147e-12 -660.99149)
(-195541.54 0 368.17499)
(-192661.02 0 -195.42342)
(-194491.78 0 135.33835)
(-193492.33 0 -60.170483)
(-194145.85 0 52.666778)
(-193809.69 -3.4868333e-12 -15.052684)
(-194056.53 0 15.057721)
(-193956.73 -1.7198247e-12 -7.5313807)
(-194062.51 0 7.5339025)
(-194045.99 -1.6962006e-12 0)
(-194101.5 0 7.5389512)
(-194115 0 7.5414781)
(-194154 0 7.5440067)
(-194176.5 -1.6488403e-12 0)
(-194209.5 -1.6369758e-12 7.5490689)
(-194237.25 -4.8753061e-12 0)
(-194267.25 0 7.554138)
(-194295 0 7.5566751)
(-194325 0 7.5592138)
(-194354.25 0 7.5617543)
(-194383.5 4.6967531e-12 0)
(-194412.75 0 7.5668404)
(-194442 0 0)
(-194471.25 0 7.5719334)
(-194500.5 0 0)
(-194530.5 3.0116387e-12 0)
(-194559.75 -1.4938366e-12 7.5795856)
(-194588.25 1.4818438e-12 7.5821398)
(-194618.25 0 7.5846958)
(-194648.25 0 7.5872534)
(-194676.75 0 7.5898128)
(-194706.75 1.4337728e-12 0)
(-194736.75 -1.4217301e-12 7.5949367)
(-194765.25 2.8193544e-12 7.5975013)
(-194795.25 0 0)
(-194825.25 0 7.6026356)
(-194854.5 0 7.6052053)
(-194883.75 0 7.6077768)
(-194913.75 4.0477869e-12 0)
(-194943.75 0 7.6129251)
(-194973 0 7.6155018)
(-195003 0 7.6180802)
(-195032.25 0 7.6206605)
(-195062.25 0 7.6232424)
(-195092.25 -1.2764309e-12 7.6258262)
(-195121.5 0 0)
(-195152.25 0 7.6309988)
(-195182.25 0 7.6335878)
(-195211.5 0 7.6361785)
(-195241.5 0 7.638771)
(-195271.5 -1.2032332e-12 7.6413653)
(-195300.75 0 7.6439613)
(-195330.75 0 7.6465591)
(-195361.5 -1.1664962e-12 7.6491586)
(-195391.5 1.1542299e-12 0)
(-195421.5 0 0)
(-195451.5 0 0)
(-195481.5 0 0)
(-195511.5 0 0)
(-195542.25 -1.0927443e-12 7.664793)
(-195572.25 1.080416e-12 7.667405)
(-195601.5 -2.1361551e-12 0)
(-195632.25 0 7.6726343)
(-195663 0 0)
(-195693 0 7.6778707)
(-195723 -1.0186197e-12 7.6804916)
(-195753 -1.0062291e-12 0)
(-195783.75 -9.9382818e-13 7.6857387)
(-195814.27 0 0)
(-195844.35 9.6899481e-13 4.6145958)
(-195874.8 0 4.6161737)
(-195905.25 -9.441197e-13 4.6177527)
(-195935.7 9.3166629e-13 4.6193328)
(-195966.07 0 4.6209139)
(-195996.6 0 4.6224961)
(-196027.12 -8.9424323e-13 4.6240794)
(-196057.65 0 4.6256639)
(-196088.25 -8.6924177e-13 4.6272493)
(-196118.77 8.567251e-13 4.6288359)
(-196149.37 -1.6883959e-12 4.6304236)
(-196180.05 0 4.6320124)
(-196210.65 0 4.6336022)
(-196241.32 0 4.6351931)
(-196272.07 -7.9398319e-13 4.6367852)
(-196302.82 -7.8140288e-13 4.6383783)
(-196333.5 -7.6881192e-13 4.6399725)
(-196364.25 0 4.6415678)
(-196395.07 7.4359793e-13 4.6431642)
(-196425.9 0 4.6447617)
(-196456.72 -7.1834126e-13 4.6463604)
(-196487.62 7.0569674e-13 4.6479601)
(-196518.52 -6.9304162e-13 4.6495609)
(-196549.35 0 4.6511628)
(-196580.32 -6.6769899e-13 4.6527658)
(-196611.3 6.5501146e-13 4.6543699)
(-196642.27 -6.4231328e-13 4.6559752)
(-196673.32 6.2960415e-13 4.6575815)
(-196704.3 6.1688428e-13 4.659189)
(-196735.35 -1.2083072e-12 4.6607975)
(-196766.47 0 4.6624072)
(-196797.6 -5.7865973e-13 4.664018)
(-196828.72 5.6589642e-13 4.6656298)
(-196859.85 -5.5312235e-13 4.6672429)
(-196891.05 0 4.668857)
(-196922.17 -1.0550828e-12 4.6704722)
(-196953.45 5.1473452e-13 4.6720886)
(-196984.72 5.0191676e-13 4.6737061)
(-197015.92 -9.7817619e-13 4.6753247)
(-197047.27 0 4.6769444)
(-197078.62 -4.6339784e-13 4.6785652)
(-197109.97 4.5053618e-13 4.6801872)
(-197141.32 -4.3766363e-13 4.6818103)
(-197172.75 0 4.6834345)
(-197204.17 -8.2377073e-13 4.6850599)
(-197235.52 3.9897967e-13 4.6866863)
(-197267.02 3.8606297e-13 4.688314)
(-197298.6 -3.7313527e-13 4.6899427)
(-197330.1 3.6019637e-13 4.6915725)
(-197361.6 -3.4724651e-13 4.6932036)
(-197393.17 0 4.6948357)
(-197424.75 -3.2131335e-13 4.6964689)
(-197456.4 3.0833004e-13 4.6981034)
(-197488.05 -2.9533571e-13 4.6997389)
(-197519.7 2.823301e-13 4.7013756)
(-197551.42 2.6931338e-13 4.7030134)
(-197583.15 0 4.7046524)
(-197614.87 0 4.7062925)
(-197646.6 -2.3019618e-13 4.7079337)
(-197678.32 -2.1713468e-13 4.7095761)
(-197710.35 -2.0406196e-13 4.7112197)
(-197742 0 4.7128644)
(-197774.1 0 4.7145102)
(-197805.52 1.6477612e-13 4.7161572)
(-197838.22 1.5165842e-13 4.7178053)
(-197868.9 -1.3852922e-13 4.7194546)
(-197903.02 1.2538902e-13 4.7211051)
(-197931.34 -1.122369e-13 5.5098828)
(-197969.51 0 4.0944882)
(-197991.3 -8.5898887e-14 5.9075792)
(-198040.53 7.2715157e-14 2.8366311)
(-198043.78 -5.9514499e-14 8.0399369)
(-198124.36 4.6311847e-14 -0.94620641)
(-198072.26 3.3081762e-14 14.27695)
(-198248 0 -16.254603)
(-197948.93 0 35.03859)
(-161468.03 3.7349133e-12 -48825.638)
(-237225.3 3.6948813e-12 -5807.904)
(-186259.02 0 -4586.3219)
(-199500.12 0 345.40297)
(-190326.91 -1.0885533e-11 -443.16475)
(-195525.03 0 247.95458)
(-192667.78 -7.162286e-12 -105.22799)
(-194487.27 0 90.225564)
(-193495.33 -7.067952e-12 -37.606552)
(-194144.35 -7.0206015e-12 37.619127)
(-193811.19 3.4868333e-12 -7.5263422)
(-194056.53 0 22.586582)
(-193956.73 1.0318949e-11 0)
(-194062.51 0 15.067805)
(-194045.99 1.0177204e-11 7.536426)
(-194101.5 6.7374901e-12 7.5389512)
(-194115 0 0)
(-194154 -6.6427762e-12 7.5440067)
(-194177.25 -3.2976808e-12 7.546537)
(-194209.5 6.5479034e-12 0)
(-194236.5 -3.2502043e-12 7.5516026)
(-194266.5 -6.4528727e-12 7.554138)
(-194295.75 6.4052985e-12 7.5566751)
(-194325 -6.3576842e-12 7.5592138)
(-194354.25 0 7.5617544)
(-194383.5 -3.1311687e-12 7.5642965)
(-194412.75 6.214605e-12 7.5668404)
(-194442 0 7.569386)
(-194471.25 0 7.5719334)
(-194501.25 0 7.5744824)
(-194529.75 3.0116389e-12 7.5770332)
(-194559 2.9876731e-12 7.5795857)
(-194589 -2.9636875e-12 7.5821399)
(-194618.25 0 7.5846958)
(-194647.5 5.8313133e-12 7.5872534)
(-194677.5 0 7.5898128)
(-194706.75 -2.8675455e-12 7.5923739)
(-194736 8.5303802e-12 7.5949367)
(-194766 -2.8193544e-12 7.5975012)
(-194795.25 0 7.6000675)
(-194824.5 0 7.6026356)
(-194854.5 5.4938341e-12 7.6052054)
(-194884.5 0 7.6077769)
(-194913.75 -2.6985246e-12 7.6103501)
(-194943 0 7.612925)
(-194973 0 7.6155018)
(-195003 5.251569e-12 7.6180802)
(-195033 0 7.6206604)
(-195062.25 0 7.6232424)
(-195092.25 7.6585854e-12 7.6258261)
(-195122.25 0 7.6284116)
(-195151.5 0 0)
(-195181.5 4.9595119e-12 7.6335878)
(-195211.5 0 7.6361785)
(-195241.5 0 7.638771)
(-195271.5 2.4064663e-12 7.6413652)
(-195301.5 0 7.6439613)
(-195331.5 4.7150084e-12 0)
(-195361.5 2.3329923e-12 7.6491586)
(-195391.5 0 7.6517599)
(-195421.5 0 7.654363)
(-195451.5 4.5186666e-12 7.6569679)
(-195481.5 0 7.6595745)
(-195511.5 0 7.6621829)
(-195541.5 6.5564657e-12 7.664793)
(-195572.25 0 7.667405)
(-195602.25 2.1361551e-12 7.6700187)
(-195632.25 0 7.6726343)
(-195662.25 0 7.6752516)
(-195692.25 0 7.6778707)
(-195723.75 2.0372393e-12 7.6804915)
(-195753.75 2.0124581e-12 7.6831142)
(-195783.75 5.962969e-12 7.6857387)
(-195813.97 0 7.6883649)
(-195844.05 0 6.9218937)
(-195874.87 0 7.6936228)
(-195905.25 5.6647182e-12 6.926629)
(-195935.62 0 7.6988879)
(-195966.15 0 7.7015232)
(-195996.6 3.6269126e-12 6.9337442)
(-196027.12 1.7884864e-12 6.9361192)
(-196057.65 0 6.9384958)
(-196088.17 1.7384835e-12 6.940874)
(-196118.85 0 7.7147266)
(-196149.37 1.6883959e-12 6.9456354)
(-196179.97 0 6.9480185)
(-196210.72 0 7.7226703)
(-196241.4 3.2262113e-12 6.9527897)
(-196272 1.5879663e-12 6.9551777)
(-196302.75 1.5628057e-12 7.7306305)
(-196333.5 1.5376238e-12 7.7332875)
(-196364.25 3.0248413e-12 6.9623517)
(-196395.07 0 7.738607)
(-196425.9 0 6.9671426)
(-196456.8 4.3100476e-12 7.7439339)
(-196487.62 0 6.9719401)
(-196518.45 1.3860832e-12 7.7492681)
(-196549.35 0 7.751938)
(-196580.32 1.3353979e-12 6.9791487)
(-196611.3 0 7.7572832)
(-196642.27 1.2846265e-12 6.9839628)
(-196673.32 0 7.7626359)
(-196704.37 0 7.7653149)
(-196735.35 1.2083072e-12 6.9911963)
(-196766.4 0 6.9936108)
(-196797.6 1.1573194e-12 6.9960269)
(-196828.72 2.263586e-12 7.7760498)
(-196859.85 1.1062446e-12 7.7787381)
(-196891.05 0 7.7814283)
(-196922.25 3.1652485e-12 7.7841204)
(-196953.45 0 7.0081329)
(-196984.65 0 7.7895101)
(-197016 9.781762e-13 7.012987)
(-197047.27 0 7.0154166)
(-197078.55 9.2679561e-13 7.0178479)
(-197109.97 0 7.800312)
(-197141.32 8.7532719e-13 7.8030172)
(-197172.75 0 7.8057242)
(-197204.17 8.2377073e-13 7.8084331)
(-197235.6 0 7.8111439)
(-197267.02 0 7.0324709)
(-197298.52 2.2388117e-12 7.8165711)
(-197330.1 0 7.8192876)
(-197361.6 6.9449295e-13 7.8220059)
(-197393.17 1.3371421e-12 7.8247261)
(-197424.82 6.4262665e-13 7.8274482)
(-197456.4 0 7.047155)
(-197487.97 5.9067135e-13 7.8328982)
(-197519.7 0 7.0520634)
(-197551.42 0 7.8383557)
(-197583.15 0 7.8410873)
(-197614.87 0 7.8438208)
(-197646.67 4.6039231e-13 7.8465562)
(-197678.32 1.3028081e-12 7.0643642)
(-197710.27 4.0812385e-13 7.0668295)
(-197742 0 7.854774)
(-197774.1 7.1153107e-13 7.857517)
(-197805.52 0 7.860262)
(-197838.22 0 7.076708)
(-197868.9 8.3117534e-13 7.8657577)
(-197903.02 0 7.8685085)
(-197931.38 2.2447373e-13 7.8712612)
(-197969.49 0 7.0866142)
(-197991.33 1.717977e-13 8.2706109)
(-198040.46 0 6.3824199)
(-198043.91 1.190289e-13 9.5375723)
(-198124.16 0 3.8636762)
(-198072.85 0 13.645925)
(-198247.21 7.9470295e-14 -9.3897948)
(-197949.82 0 31.431328)
(-158924.55 0 -68891.482)
(-234558.54 -7.3893956e-12 -8636.8184)
(-185868.61 -7.3534368e-12 -5997.4979)
(-199263.82 0 345.40297)
(-190327.69 1.4514023e-11 -518.27742)
(-195507.76 0 300.55101)
(-192676.78 7.162286e-12 -112.74428)
(-194485.02 0 105.26316)
(-193497.59 7.067952e-12 -37.606552)
(-194142.84 7.0206014e-12 37.619127)
(-193811.19 0 -7.5263422)
(-194055.78 0 22.586582)
(-193957.48 -1.3758598e-11 7.5313807)
(-194061.76 0 15.067805)
(-194046.74 -1.3569605e-11 7.5364261)
(-194102.25 -6.7374901e-12 7.5389512)
(-194115 0 7.5414781)
(-194153.25 6.6427762e-12 7.5440067)
(-194177.25 1.3190723e-11 15.093074)
(-194209.5 -1.3095807e-11 7.5490689)
(-194236.5 1.3000817e-11 15.103205)
(-194267.25 6.4528727e-12 7.554138)
(-194295 -6.4052985e-12 7.5566751)
(-194325 6.3576842e-12 7.5592138)
(-194354.25 6.310031e-12 7.5617543)
(-194383.5 6.2623379e-12 7.5642965)
(-194412.75 1.9228089e-19 7.5668404)
(-194442 0 15.138772)
(-194471.25 0 7.5719334)
(-194500.5 0 7.5744824)
(-194530.5 3.850798e-19 15.154066)
(-194559.75 0 7.5795856)
(-194588.25 5.9273754e-12 7.5821398)
(-194618.25 0 7.5846958)
(-194648.25 -5.8313133e-12 7.5872534)
(-194676.75 0 7.5898128)
(-194706.75 5.7350915e-12 7.5923739)
(-194736.75 -5.6869202e-12 7.5949367)
(-194765.25 5.6387091e-12 7.5975013)
(-194795.25 0 15.200135)
(-194825.25 0 7.6026356)
(-194854.5 -5.4938341e-12 7.6052053)
(-194883.75 5.445462e-12 7.6077768)
(-194913.75 5.3970497e-12 15.2207)
(-194943.75 5.3485964e-12 7.6129251)
(-194973 0 7.6155018)
(-195003 -5.251569e-12 7.6180803)
(-195032.25 0 7.6206605)
(-195062.25 0 7.6232424)
(-195092.25 -5.1057236e-12 7.6258261)
(-195122.25 0 15.256823)
(-195152.25 0 7.6309988)
(-195181.5 -4.9595119e-12 7.6335878)
(-195211.5 0 7.6361785)
(-195241.5 0 7.638771)
(-195271.5 0 7.6413653)
(-195301.5 0 7.6439613)
(-195330.75 -4.7150084e-12 7.646559)
(-195360.75 0 7.6491586)
(-195391.5 0 7.6517599)
(-195421.5 0 15.308726)
(-195451.5 -4.5186666e-12 15.313936)
(-195481.5 0 15.319149)
(-195511.5 0 15.324366)
(-195542.25 -4.3709772e-12 7.6647931)
(-195572.25 -4.3216646e-12 7.667405)
(-195601.5 0 15.340037)
(-195632.25 0 7.6726343)
(-195663 0 15.350503)
(-195693 0 7.6778707)
(-195723 -4.0744789e-12 7.6804915)
(-195753 -4.0249168e-12 15.366228)
(-195783.75 -3.9753127e-12 7.6857387)
(-195814.35 0 15.37673)
(-195844.35 0 9.9982909)
(-195874.8 0 10.00171)
(-195905.25 -3.7764789e-12 10.774756)
(-195935.62 -3.7266657e-12 10.778443)
(-195966.15 0 10.01198)
(-195996.67 -3.6269126e-12 10.785824)
(-196027.12 0 10.018839)
(-196057.65 0 10.793216)
(-196088.17 0 10.025707)
(-196118.77 -3.426901e-12 10.029145)
(-196149.45 0 10.804322)
(-196179.97 0 10.036027)
(-196210.65 0 10.039471)
(-196241.4 -3.2262113e-12 10.815451)
(-196272 -3.1759331e-12 10.819165)
(-196302.75 -3.1256119e-12 10.04982)
(-196333.57 0 10.826603)
(-196364.25 -3.0248413e-12 10.05673)
(-196395.07 0 10.060189)
(-196425.9 0 10.06365)
(-196456.72 -2.8733651e-12 10.067114)
(-196487.62 -2.8227875e-12 10.84524)
(-196518.45 0 10.848975)
(-196549.42 0 10.077519)
(-196580.32 0 10.080993)
(-196611.3 -2.6200464e-12 10.084468)
(-196642.27 0 10.087946)
(-196673.25 -2.5184172e-12 10.091427)
(-196704.37 0 10.871441)
(-196735.42 0 10.875194)
(-196766.47 0 10.101882)
(-196797.52 -2.3146392e-12 10.105372)
(-196828.65 -2.263586e-12 10.88647)
(-196859.85 0 10.11236)
(-196891.05 -2.1613497e-12 10.894)
(-196922.25 -2.1101658e-12 10.897769)
(-196953.45 -2.0589387e-12 10.90154)
(-196984.72 0 10.905314)
(-197016 0 10.12987)
(-197047.27 -1.9049942e-12 10.91287)
(-197078.55 0 10.136891)
(-197109.9 0 10.140406)
(-197141.32 -1.7506548e-12 10.143922)
(-197172.75 0 10.147441)
(-197204.17 0 10.931806)
(-197235.6 0 10.935601)
(-197267.02 -1.5442525e-12 10.939399)
(-197298.52 -1.4925412e-12 10.161542)
(-197330.1 -1.4407861e-12 10.947003)
(-197361.6 0 10.950808)
(-197393.17 -1.3371421e-12 10.172144)
(-197424.82 0 10.175683)
(-197456.4 -1.2333207e-12 10.962241)
(-197488.05 0 10.182768)
(-197519.7 -1.129321e-12 10.186314)
(-197551.35 0 10.189862)
(-197583.15 0 10.193413)
(-197614.87 0 10.981349)
(-197646.67 -9.207851e-13 10.985179)
(-197678.4 -1.7370778e-12 10.989011)
(-197710.27 -8.1624814e-13 10.207643)
(-197741.92 0 10.996684)
(-197774.1 -7.1153107e-13 10.214772)
(-197805.6 0 11.004367)
(-197838.22 -6.0663423e-13 10.221912)
(-197868.82 -5.5411696e-13 10.225485)
(-197903.02 -5.0155665e-13 10.229061)
(-197931.42 0 11.019766)
(-197969.47 0 10.15748)
(-197991.37 0 11.500088)
(-198040.41 -2.908611e-13 9.2978463)
(-198044.02 0 12.926957)
(-198123.97 -1.8524762e-13 6.3868933)
(-198073.52 0 17.668712)
(-198246.31 -7.9470295e-14 -10.178853)
(-197951.02 0 40.319242)
(-155453.38 0 -89849.975)
(-230937.01 7.3893956e-12 -10662.831)
(-185362.07 7.3534368e-12 -7558.799)
(-198952.49 0 510.59569)
(-190331.49 -7.257005e-12 -668.50275)
(-195484.48 0 398.23009)
(-192687.3 0 -157.84199)
(-194479.76 -1.4229002e-11 142.85714)
(-193502.09 0 -45.127862)
(-194141.34 0 52.666778)
(-193812.69 0 -7.5263422)
(-194055.03 0 22.586582)
(-193957.48 6.8792993e-12 7.5313808)
(-194062.51 1.3664086e-11 15.067805)
(-194046.74 6.7848026e-12 7.5364261)
(-194101.5 0 15.077903)
(-194114.99 1.3380319e-11 15.082956)
(-194153.25 0 15.088013)
(-194177.24 -1.9786086e-11 15.093074)
(-194209.5 -6.5479044e-12 15.098138)
(-194236.5 -6.5004088e-12 15.103205)
(-194267.25 0 15.108276)
(-194295.75 -1.2810598e-11 15.11335)
(-194325 0 7.5592139)
(-194354.25 6.3100317e-12 15.123509)
(-194383.5 6.2623383e-12 7.5642965)
(-194412 6.214606e-12 15.133681)
(-194442 0 15.138772)
(-194472 1.2238043e-11 15.143867)
(-194500.5 1.2142339e-11 7.5744824)
(-194529.75 6.0232787e-12 15.154066)
(-194559.75 1.1950694e-11 15.159171)
(-194589 5.9273761e-12 15.16428)
(-194618.25 1.1758729e-11 7.5846957)
(-194647.5 1.1662628e-11 15.174507)
(-194677.5 1.1566446e-11 15.179626)
(-194706.75 -5.7350915e-12 7.5923739)
(-194736 1.1373842e-11 15.189873)
(-194765.25 5.6387099e-12 15.195003)
(-194795.25 1.1180917e-11 15.200135)
(-194825.25 1.1084333e-11 15.205271)
(-194854.5 1.0987669e-11 15.210411)
(-194883.75 5.4454628e-12 15.215554)
(-194913.75 5.3970501e-12 7.6103501)
(-194943.75 5.3485972e-12 15.22585)
(-194973 0 15.231004)
(-195003 1.0503139e-11 15.23616)
(-195033 1.040599e-11 15.241321)
(-195062.25 1.0308759e-11 7.6232424)
(-195091.5 -1.0211448e-11 15.251652)
(-195122.25 1.0114055e-11 7.6284116)
(-195152.25 1.0016581e-11 15.261998)
(-195181.5 9.919025e-12 15.267176)
(-195211.5 9.8213873e-12 15.272357)
(-195241.5 0 15.277542)
(-195271.5 -9.6258667e-12 15.282731)
(-195301.5 9.5279833e-12 15.287923)
(-195331.5 9.4300179e-12 15.293118)
(-195361.5 -9.3319705e-12 7.6491586)
(-195390.75 9.2338406e-12 7.6517599)
(-195420.75 9.1356292e-12 15.308726)
(-195451.5 9.0373348e-12 15.313936)
(-195481.5 8.9389577e-12 15.319149)
(-195512.25 0 15.324366)
(-195542.25 -8.7419552e-12 7.664793)
(-195571.5 4.3216646e-12 15.33481)
(-195602.25 8.5446222e-12 15.340037)
(-195632.25 -8.4458308e-12 7.6726343)
(-195662.25 0 15.350503)
(-195693 8.2479993e-12 15.355741)
(-195723 1.2223438e-11 15.360983)
(-195753.75 1.2074751e-11 15.366228)
(-195783.75 7.9506263e-12 7.6857387)
(-195813.75 -7.8513355e-12 15.37673)
(-195844.57 0 13.843787)
(-195874.8 7.6525015e-12 13.079159)
(-195905.17 -7.552959e-12 13.853258)
(-195935.7 3.7266657e-12 13.08811)
(-195966.15 7.3536214e-12 13.092589)
(-195996.6 7.2538265e-12 13.867488)
(-196027.12 7.1539472e-12 13.872238)
(-196057.65 7.0539835e-12 13.876992)
(-196088.25 -6.9539355e-12 13.881748)
(-196118.77 3.426901e-12 13.115035)
(-196149.37 6.7535852e-12 13.119534)
(-196180.05 -6.6532831e-12 13.896037)
(-196210.65 0 13.12854)
(-196241.32 6.4524239e-12 13.133047)
(-196272.07 9.5277999e-12 13.910355)
(-196302.75 9.3768363e-12 13.142072)
(-196333.5 6.1504968e-12 13.146589)
(-196364.32 -6.0496838e-12 13.924703)
(-196395.07 0 13.155632)
(-196425.9 5.8478011e-12 13.934285)
(-196456.72 -5.7467314e-12 13.164688)
(-196487.55 2.8227875e-12 13.94388)
(-196518.52 0 13.173756)
(-196549.42 5.4430069e-12 13.178295)
(-196580.32 5.3415933e-12 13.958297)
(-196611.3 2.6200464e-12 13.187381)
(-196642.27 -5.1385076e-12 13.967926)
(-196673.25 2.5184172e-12 13.196481)
(-196704.3 0 13.201035)
(-196735.42 -4.8332306e-12 13.982393)
(-196766.47 0 13.987222)
(-196797.52 2.3146392e-12 13.992054)
(-196828.72 4.5271733e-12 13.219285)
(-196859.85 4.4249802e-12 13.223855)
(-196890.97 2.1613497e-12 13.228428)
(-196922.25 -4.2203328e-12 13.233005)
(-196953.45 2.0589387e-12 14.016266)
(-196984.72 0 13.242167)
(-197016 -3.9127064e-12 14.025974)
(-197047.27 1.9049942e-12 14.030833)
(-197078.62 0 14.035696)
(-197109.97 3.6042912e-12 13.26053)
(-197141.32 5.2519652e-12 13.265129)
(-197172.67 0 13.269731)
(-197204.1 -3.2950846e-12 13.274336)
(-197235.6 0 13.278945)
(-197267.1 1.5442525e-12 14.064942)
(-197298.52 -2.9850835e-12 13.288171)
(-197330.02 1.4407861e-12 13.292789)
(-197361.67 0 13.29741)
(-197393.25 0 13.302034)
(-197424.75 0 13.306662)
(-197456.4 1.2333207e-12 14.09431)
(-197488.05 -2.362687e-12 13.315927)
(-197519.7 1.129321e-12 14.104127)
(-197551.42 0 13.325205)
(-197583.07 -2.0502858e-12 13.329848)
(-197614.8 0 13.334495)
(-197646.67 9.207851e-13 13.339146)
(-197678.4 8.6853906e-13 14.128728)
(-197710.27 8.1624814e-13 14.133659)
(-197742 0 13.353116)
(-197774.1 -1.4230633e-12 13.357779)
(-197805.52 0 13.362445)
(-197838.3 6.0663423e-13 14.153416)
(-197868.9 -1.1082351e-12 13.371788)
(-197902.95 5.0155665e-13 13.376464)
(-197931.39 0 14.16827)
(-197969.44 0 13.070866)
(-197991.41 0 14.8871)
(-198040.33 2.908611e-13 11.898091)
(-198044.19 -4.7611758e-13 16.868103)
(-198123.71 1.8524762e-13 8.121605)
(-198074.42 0 22.95355)
(-198245.07 -1.589394e-13 -13.177275)
(-197952.68 0 52.767058)
(-151020.07 -1.4923445e-11 -111356.06)
(-226330.71 1.4777617e-11 -12441.221)
(-184752.84 1.4706037e-11 -8894.9124)
(-198575.13 -1.4599826e-11 698.3147)
(-190339.05 0 -788.68302)
(-195456.69 -1.4415746e-11 488.39539)
(-192702.32 0 -195.42342)
(-194473.74 1.4229002e-11 165.41353)
(-193506.6 0 -67.691793)
(-194139.08 0 67.714429)
(-193814.19 0 -15.052684)
(-194054.28 0 37.644303)
(-193958.23 -1.3758599e-11 0)
(-194061.76 -1.3664086e-11 22.601708)
(-194046.74 -1.3569606e-11 15.072852)
(-194101.5 0 22.616854)
(-194114.99 -1.3380319e-11 15.082956)
(-194153.25 1.3285554e-11 15.088013)
(-194177.24 2.638145e-11 15.093074)
(-194209.5 1.3095808e-11 15.098138)
(-194236.49 1.3000819e-11 15.103205)
(-194267.25 1.2905747e-11 15.108276)
(-194295.75 1.2810598e-11 15.11335)
(-194325 0 15.118428)
(-194354.25 -1.2620063e-11 15.123509)
(-194383.49 -1.2524676e-11 22.69289)
(-194412 -1.2429211e-11 15.133681)
(-194442 0 15.138772)
(-194472 -1.2238043e-11 15.143867)
(-194500.49 -1.2142339e-11 22.723447)
(-194529.75 -1.2046557e-11 15.154066)
(-194559.75 -1.1950694e-11 15.159171)
(-194589 -1.1854752e-11 15.16428)
(-194618.25 -1.1758729e-11 15.169392)
(-194647.5 -1.1662628e-11 15.174507)
(-194677.5 -1.1566446e-11 15.179626)
(-194706.74 0 22.777122)
(-194736 -1.1373842e-11 15.189873)
(-194765.25 -1.1277419e-11 15.195003)
(-194795.25 -1.1180917e-11 15.200135)
(-194825.25 -1.1084333e-11 15.205271)
(-194854.5 -1.0987669e-11 15.210411)
(-194884.5 -1.0890925e-11 15.215554)
(-194913.75 -1.07941e-11 15.2207)
(-194943 -1.0697194e-11 15.22585)
(-194973 0 15.231004)
(-195003 -1.0503139e-11 15.23616)
(-195033 -1.040599e-11 15.241321)
(-195062.24 -1.0308759e-11 22.869727)
(-195092.25 1.0211448e-11 15.251652)
(-195122.25 -1.0114055e-11 15.256823)
(-195151.5 -1.0016581e-11 15.261998)
(-195181.5 -9.919025e-12 15.267176)
(-195211.5 -9.8213873e-12 15.272357)
(-195241.5 0 15.277542)
(-195271.5 9.6258667e-12 15.28273)
(-195301.5 -9.5279833e-12 15.287923)
(-195331.5 -9.4300179e-12 15.293118)
(-195361.5 9.3319705e-12 15.298317)
(-195390.74 -9.2338406e-12 22.95528)
(-195420.75 -9.1356292e-12 15.308726)
(-195451.5 -9.0373348e-12 15.313936)
(-195481.5 -8.9389577e-12 15.319149)
(-195512.25 0 15.324366)
(-195542.24 8.7419552e-12 22.994379)
(-195571.5 0 15.33481)
(-195602.25 -8.5446222e-12 15.340037)
(-195632.25 8.4458308e-12 15.345269)
(-195662.25 0 15.350503)
(-195693 -8.2479993e-12 15.355741)
(-195723 -8.1489586e-12 15.360983)
(-195753.75 -8.0498344e-12 15.366228)
(-195783.74 -7.9506263e-12 23.057216)
(-195813.75 7.8513355e-12 15.37673)
(-195844.57 0 16.151085)
(-195874.79 -7.6525015e-12 16.92597)
(-195905.25 7.552959e-12 16.162134)
(-195935.7 0 16.167665)
(-195966.07 -7.3536214e-12 16.943351)
(-195996.6 -7.2538265e-12 16.178737)
(-196027.12 -7.1539472e-12 16.184278)
(-196057.65 -7.0539835e-12 16.189824)
(-196088.25 6.9539355e-12 16.195373)
(-196118.84 0 16.972398)
(-196149.37 -6.7535852e-12 16.206483)
(-196179.97 6.6532832e-12 16.212043)
(-196210.72 0 16.217608)
(-196241.32 -6.4524239e-12 16.223176)
(-196272 -6.3518669e-12 16.228748)
(-196302.82 -6.2512244e-12 16.234324)
(-196333.49 -6.1504968e-12 16.239904)
(-196364.25 6.0496838e-12 16.245487)
(-196395.07 0 16.251075)
(-196425.9 -5.8478011e-12 16.256666)
(-196456.72 5.7467314e-12 17.036655)
(-196487.62 0 16.26786)
(-196518.52 0 16.273463)
(-196549.35 -5.4430069e-12 17.054264)
(-196580.32 -5.3415933e-12 16.28468)
(-196611.29 0 17.066023)
(-196642.27 5.1385076e-12 16.295913)
(-196673.32 0 16.301535)
(-196704.29 0 16.307161)
(-196735.35 4.8332306e-12 16.312791)
(-196766.47 0 16.318425)
(-196797.59 0 16.324063)
(-196828.72 -4.5271733e-12 16.329704)
(-196859.84 -4.4249801e-12 17.113224)
(-196891.04 0 16.340999)
(-196922.17 4.2203328e-12 16.346653)
(-196953.44 0 16.35231)
(-196984.72 0 16.357971)
(-197015.92 3.9127064e-12 16.363636)
(-197047.27 0 16.369305)
(-197078.62 0 16.374978)
(-197109.97 -3.6042912e-12 17.160686)
(-197141.32 -3.5013104e-12 17.166638)
(-197172.74 0 17.172593)
(-197204.17 3.2950846e-12 16.39771)
(-197235.52 0 16.403402)
(-197267.02 0 16.409099)
(-197298.6 2.9850835e-12 17.196456)
(-197330.09 0 16.420504)
(-197361.59 0 16.426212)
(-197393.17 0 17.214397)
(-197424.74 0 17.220386)
(-197456.39 0 16.443362)
(-197488.05 2.362687e-12 17.232376)
(-197519.69 0 16.454815)
(-197551.42 0 17.244383)
(-197583.15 2.0502858e-12 17.250392)
(-197614.87 0 16.472024)
(-197646.59 0 16.477768)
(-197678.32 0 16.483516)
(-197710.34 0 16.489269)
(-197741.99 0 16.495025)
(-197774.1 1.4230633e-12 17.286537)
(-197805.52 0 16.50655)
(-197838.22 0 16.512319)
(-197868.9 1.1082351e-12 17.304667)
(-197902.94 0 16.523868)
(-197931.45 0 17.316775)
(-197969.4 0 15.984252)
(-197991.48 0 18.116576)
(-198040.22 0 14.498337)
(-198044.38 4.7611758e-13 20.57278)
(-198123.39 0 9.8563168)
(-198075.54 0 28.080631)
(-198243.48 1.589394e-13 -15.702262)
(-197954.77 0 64.73338)
(-145579.74 1.4923445e-11 -133747.29)
(-220692.37 -1.4777617e-11 -13949.475)
(-184049.91 -5.0660906e-16 -9968.3069)
(-198142.24 1.4599826e-11 916.06875)
(-190352.61 0 -886.32949)
(-195425.14 1.4415746e-11 571.04692)
(-192719.58 0 -217.97227)
(-194466.98 0 203.00752)
(-193511.85 0 -75.213104)
(-194136.08 0 82.76208)
(-193815.69 0 -15.052684)
(-194053.52 0 37.644303)
(-193958.98 1.3758599e-11 7.5313807)
(-194061 0 30.13561)
(-194046.74 1.3569606e-11 15.072852)
(-194101.5 0 22.616854)
(-194115.74 0 15.082956)
(-194153.24 -1.3285554e-11 22.63202)
(-194177.24 -1.3190725e-11 15.093074)
(-194209.49 0 22.647207)
(-194236.49 -1.3000819e-11 15.103205)
(-194267.25 -1.2905747e-11 15.108276)
(-194295.75 1.28106e-11 15.11335)
(-194324.99 0 22.677642)
(-194353.49 0 15.123509)
(-194383.49 0 22.69289)
(-194412.74 0 15.133681)
(-194441.99 0 15.138772)
(-194471.25 0 15.143867)
(-194500.49 0 22.723447)
(-194530.49 -1.2046558e-11 15.154066)
(-194559.74 0 22.738757)
(-194588.99 0 15.16428)
(-194618.24 0 22.754087)
(-194647.5 1.1662629e-11 15.174507)
(-194676.74 0 22.769438)
(-194706.74 -1.1470186e-11 22.777122)
(-194736.74 0 22.78481)
(-194765.24 0 22.792504)
(-194795.24 0 15.200135)
(-194825.24 0 22.807907)
(-194854.49 -1.0987671e-11 15.210411)
(-194883.74 0 22.823331)
(-194913.74 -1.0794102e-11 22.83105)
(-194943.74 -1.0697196e-11 22.838775)
(-194972.99 -1.0600208e-11 15.231004)
(-195003 0 15.23616)
(-195032.24 -1.0405992e-11 22.861981)
(-195062.24 0 22.869727)
(-195092.25 1.021145e-11 15.251652)
(-195122.24 0 22.885235)