/*--------------------------------*- C++ -*----------------------------------*\
  =========                 |
  \\      /  F ield         | OpenFOAM: The Open Source CFD Toolbox
   \\    /   O peration     | Website:  https://openfoam.org
    \\  /    A nd           | Version:  6
     \\/     M anipulation  |
\*---------------------------------------------------------------------------*/
FoamFile
{
    version     2.0;
    format      ascii;
    class       volVectorField;
    location    "10000";
    object      U;
}
// * * * * * * * * * * * * * * * * * * * * * * * * * * * * * * * * * * * * * //

dimensions      [0 1 -1 0 0 0 0];

internalField   nonuniform List<vector> 
2250
(
(1.3108847 -2.0573455e-20 0.012877795)
(1.1694378 -2.0393497e-20 0.0066690588)
(1.0488877 2.0280742e-20 0.0035017898)
(1.0278071 0 0.0010691355)
(1.0071998 0 0.00049244361)
(1.0075561 0 0.00011129664)
(1.0030903 0 8.6940231e-05)
(1.0038797 0 2.2681003e-05)
(1.002301 0 3.6611681e-05)
(1.0023443 0 2.135147e-05)
(1.0014875 0 2.8420929e-05)
(1.0011813 0 2.3687166e-05)
(1.000553 1.8846422e-20 2.6339652e-05)
(1.000117 0 2.4712302e-05)
(0.99956729 1.8562796e-20 2.5647113e-05)
(0.99908529 0 2.5067662e-05)
(0.99856334 0 2.5387305e-05)
(0.99806531 0 2.5173744e-05)
(0.99755329 1.7996441e-20 2.5276436e-05)
(0.99704979 -1.7855027e-20 2.5191528e-05)
(0.99654144 -1.7713689e-20 2.5217902e-05)
(0.99603618 0 2.5178262e-05)
(0.9955293 0 2.5177809e-05)
(0.99502359 0 2.5154106e-05)
(0.99451739 0 2.5144211e-05)
(0.9940117 1.7008027e-20 2.5126145e-05)
(0.99350592 0 2.5112909e-05)
(0.9930004 0 2.5096802e-05)
(0.99249494 0 2.5082423e-05)
(0.99198965 0 2.5067021e-05)
(0.99148448 0 2.5052236e-05)
(0.99097945 1.616353e-20 2.5037109e-05)
(0.99047454 -1.6023024e-20 2.5022185e-05)
(0.98996977 0 2.5007153e-05)
(0.98946513 0 2.4992208e-05)
(0.98896062 0 2.4977191e-05)
(0.98845625 -1.5461696e-20 2.4962213e-05)
(0.98795201 1.5321538e-20 2.4947237e-05)
(0.9874479 0 2.4932261e-05)
(0.98694392 0 2.4917295e-05)
(0.98644008 0 2.4902347e-05)
(0.98593636 0 2.4887389e-05)
(0.98543278 0 2.487245e-05)
(0.98492933 1.4482053e-20 2.4857522e-05)
(0.98442602 0 2.4842567e-05)
(0.98392284 0 2.4827624e-05)
(0.98341978 0 2.4812699e-05)
(0.98291687 0 2.4797765e-05)
(0.98241408 0 2.4782847e-05)
(0.98191143 1.3645076e-20 2.4767943e-05)
(0.9814089 0 2.4753031e-05)
(0.98090651 0 2.4738136e-05)
(0.98040426 0 2.4723253e-05)
(0.97990213 0 2.4708344e-05)
(0.97940014 0 2.4693446e-05)
(0.97889828 1.2810609e-20 2.4678566e-05)
(0.97839655 0 2.4663677e-05)
(0.97789495 0 2.4648804e-05)
(0.97739349 1.2394317e-20 2.4633945e-05)
(0.97689215 1.2255692e-20 2.4619078e-05)
(0.97639095 0 2.4604229e-05)
(0.97588989 0 2.4589391e-05)
(0.97538895 0 2.4574527e-05)
(0.97488815 0 2.4559674e-05)
(0.97438747 1.1563616e-20 2.4544839e-05)
(0.97388693 1.142541e-20 2.4529996e-05)
(0.97338653 0 2.4515168e-05)
(0.97288625 0 2.4500354e-05)
(0.97238611 0 2.4485532e-05)
(0.97188609 0 2.4470728e-05)
(0.97138621 1.0735429e-20 2.4455936e-05)
(0.97088647 1.0597642e-20 2.4441116e-05)
(0.97038685 1.0459925e-20 2.4426309e-05)
(0.96988737 0 2.4411519e-05)
(0.96938801 1.0184701e-20 2.439672e-05)
(0.96888879 0 2.4381937e-05)
(0.9683897 9.9097561e-21 2.4367169e-05)
(0.96789075 9.7723883e-21 2.4352392e-05)
(0.96739192 0 2.4337633e-05)
(0.96689323 0 2.4322885e-05)
(0.96639467 9.360705e-21 2.4308111e-05)
(0.96589624 0 2.4293348e-05)
(0.96539794 9.0865991e-21 2.4278603e-05)
(0.96489978 8.9496508e-21 2.4263851e-05)
(0.96440174 0 2.4249112e-05)
(0.96390384 0 2.4234389e-05)
(0.96340607 0 2.4219657e-05)
(0.96290844 0 2.4204943e-05)
(0.96241093 8.2659594e-21 2.4190241e-05)
(0.96191355 8.1294309e-21 2.4175511e-05)
(0.96141631 7.9929724e-21 2.4160794e-05)
(0.9609192 0 2.4146094e-05)
(0.96042222 7.7202654e-21 2.4131386e-05)
(0.95992537 0 2.4116692e-05)
(0.95942866 7.4478385e-21 2.4102014e-05)
(0.95893207 7.3117299e-21 2.4087327e-05)
(0.95843562 7.1756914e-21 2.4072658e-05)
(0.9579393 0 2.4058001e-05)
(0.95744311 6.9038245e-21 2.4043316e-05)
(0.95694705 6.7679961e-21 2.4028643e-05)
(0.95645112 6.6322378e-21 2.4013988e-05)
(0.95595533 6.4965494e-21 2.3999325e-05)
(0.95545967 6.3609311e-21 2.3984677e-05)
(0.95496413 0 2.3970043e-05)
(0.95446873 0 2.3955402e-05)
(0.95397347 5.9544966e-21 2.3940777e-05)
(0.95347833 5.8191587e-21 2.3926165e-05)
(0.95298332 5.6838907e-21 2.3911525e-05)
(0.95248845 0 2.3896898e-05)
(0.95199371 0 2.3882288e-05)
(0.9514991 5.2785075e-21 2.3867669e-05)
(0.95100462 5.14352e-21 2.3853066e-05)
(0.95051027 0 2.3838477e-05)
(0.95001605 0 2.382388e-05)
(0.94952197 4.7389781e-21 2.3809301e-05)
(0.94902801 4.6042712e-21 2.3794734e-05)
(0.94853419 4.4696343e-21 2.3780139e-05)
(0.9480405 0 2.3765556e-05)
(0.94754694 0 2.3750991e-05)
(0.94705351 4.0661447e-21 2.3736417e-05)
(0.94656022 3.9317885e-21 2.372186e-05)
(0.94606705 3.7975025e-21 2.3707313e-05)
(0.94557402 3.6632866e-21 2.3692765e-05)
(0.94508112 3.529141e-21 2.3678224e-05)
(0.94458835 0 2.3663713e-05)
(0.9440957 3.2610603e-21 2.3649144e-05)
(0.9436032 3.1271253e-21 2.3634637e-05)
(0.94311082 2.9932605e-21 2.3620064e-05)
(0.94261858 2.8594659e-21 2.3605624e-05)
(0.94212645 2.7257415e-21 2.3590961e-05)
(0.94163448 0 2.3576712e-05)
(0.94114261 0 2.3561786e-05)
(0.94065092 2.32499e-21 2.3547997e-05)
(0.94015928 2.1915467e-21 2.3532347e-05)
(0.93966791 2.0581737e-21 2.3519804e-05)
(0.93917643 0 2.3502027e-05)
(0.93868549 0 2.3493047e-05)
(0.93819399 1.6584757e-21 2.3469366e-05)
(0.93770378 1.5253848e-21 2.3470294e-05)
(0.93721177 1.3923615e-21 2.3430097e-05)
(0.93672311 1.259413e-21 2.3458805e-05)
(0.9362292 1.1265274e-21 2.3372481e-05)
(0.93574442 0 2.3479658e-05)
(0.93524465 8.6097122e-22 2.3266167e-05)
(0.93477019 7.2832266e-22 2.3600601e-05)
(0.93425319 5.956871e-22 2.3045989e-05)
(0.93380645 4.6321802e-22 2.4087288e-05)
(0.93323736 3.3065801e-22 2.2555483e-05)
(0.93286822 0 2.6017786e-05)
(0.93212953 0 1.8129321e-05)
(1.2982764 1.1035912e-19 0.038477506)
(1.1585725 1.0964046e-19 0.020001505)
(1.0396244 -3.634496e-20 0.010422148)
(1.0189395 0 0.003211789)
(0.9985599 -7.1638507e-20 0.0014609157)
(0.99894351 0 0.00033907572)
(0.99451328 0 0.00025658504)
(0.99530181 0 7.0290979e-05)
(0.99373417 0 0.00010851207)
(0.99377893 0 6.491517e-05)
(0.99292859 6.8568468e-20 8.4846937e-05)
(0.99262573 0 7.1406131e-05)
(0.99200251 3.3775508e-20 7.89136e-05)
(0.99157054 0 7.4298381e-05)
(0.99102553 3.3267405e-20 7.694461e-05)
(0.99054784 0 7.5300013e-05)
(0.99003042 0 7.6203325e-05)
(0.98953677 0 7.5595592e-05)
(0.98902923 3.2252784e-20 7.5884101e-05)
(0.98853014 3.1999437e-20 7.5640958e-05)
(0.98802625 9.5238675e-20 7.5713186e-05)
(0.98752542 0 7.5598326e-05)
(0.98702297 0 7.5594543e-05)
(0.9865217 0 7.5524844e-05)
(0.98601994 0 7.5494301e-05)
(0.98551868 -9.144597e-20 7.5440586e-05)
(0.98501733 0 7.5400568e-05)
(0.98451624 0 7.5352404e-05)
(0.98401521 0 7.5309153e-05)
(0.98351435 0 7.5262988e-05)
(0.9830136 -5.8441671e-20 7.5218582e-05)
(0.98251299 2.8968975e-20 7.5173211e-05)
(0.98201251 -2.8717237e-20 7.5128406e-05)
(0.98151217 0 7.5083308e-05)
(0.98101195 0 7.5038447e-05)
(0.98051186 0 7.4993389e-05)
(0.98001191 -2.7711518e-20 7.4948432e-05)
(0.97951208 2.7460396e-20 7.4903495e-05)
(0.97901239 -5.4418794e-20 7.4858547e-05)
(0.97851283 0 7.4813634e-05)
(0.9780134 0 7.476878e-05)
(0.9775141 0 7.4723885e-05)
(0.97701494 0 7.4679057e-05)
(0.9765159 -7.786877e-20 7.4634252e-05)
(0.97601699 0 7.4589378e-05)
(0.97551822 0 7.4544528e-05)
(0.97501958 0 7.4499742e-05)
(0.97452107 0 7.4454921e-05)
(0.97402269 0 7.4410149e-05)
(0.97352444 2.4456561e-20 7.4365428e-05)
(0.97302632 0 7.432067e-05)
(0.97252833 0 7.4275976e-05)
(0.97203047 0 7.4231308e-05)
(0.97153275 0 7.4186568e-05)
(0.97103515 0 7.4141854e-05)
(0.97053769 2.2961311e-20 7.4097204e-05)
(0.97004036 0 7.4052518e-05)
(0.96954316 0 7.4007882e-05)
(0.96904608 2.2215353e-20 7.3963296e-05)
(0.96854915 -2.1966946e-20 7.3918673e-05)
(0.96805234 0 7.3874115e-05)
(0.96755566 0 7.3829582e-05)
(0.96705911 0 7.3784978e-05)
(0.9665627 0 7.3740399e-05)
(0.96606641 2.0726776e-20 7.3695885e-05)
(0.96557026 -2.0479111e-20 7.3651334e-05)
(0.96507423 4.0463145e-20 7.3606834e-05)
(0.96457834 0 7.3562382e-05)
(0.96408258 0 7.3517895e-05)
(0.96358695 0 7.3473473e-05)
(0.96309145 1.9242652e-20 7.3429075e-05)
(0.96259608 1.8995731e-20 7.3384606e-05)
(0.96210084 1.8748934e-20 7.3340162e-05)
(0.96160573 0 7.3295783e-05)
(0.96111076 -1.825571e-20 7.3251368e-05)
(0.96061591 0 7.3207002e-05)
(0.96012119 1.7762984e-20 7.3162686e-05)
(0.95962661 -1.7516804e-20 7.3118334e-05)
(0.95913216 0 7.3074047e-05)
(0.95863783 0 7.3029785e-05)
(0.95814364 1.6779014e-20 7.298545e-05)
(0.95764958 0 7.2941142e-05)
(0.95715565 1.6287774e-20 7.2896897e-05)
(0.95666185 -1.6042338e-20 7.2852617e-05)
(0.95616818 3.1594055e-20 7.2808387e-05)
(0.95567464 0 7.2764206e-05)
(0.95518123 0 7.2719989e-05)
(0.95468795 0 7.2675837e-05)
(0.9541948 1.4817025e-20 7.263171e-05)
(0.95370179 1.4572334e-20 7.258751e-05)
(0.9532089 1.4327768e-20 7.2543336e-05)
(0.95271614 0 7.2499227e-05)
(0.95222352 -1.3839005e-20 7.2455082e-05)
(0.95173102 0 7.2410986e-05)
(0.95123866 1.3350741e-20 7.236694e-05)
(0.95074643 -1.3106794e-20 7.2322858e-05)
(0.95025432 1.2862973e-20 7.2278841e-05)
(0.94976235 0 7.2234849e-05)
(0.94927051 1.23757e-20 7.2190784e-05)
(0.9487788 -1.2132249e-20 7.2146745e-05)
(0.94828721 1.1888925e-20 7.210277e-05)
(0.94779576 -1.1645722e-20 7.205876e-05)
(0.94730444 -1.1402645e-20 7.2014799e-05)
(0.94681325 2.2319385e-20 7.1970888e-05)
(0.94632219 0 7.192694e-05)
(0.94583126 1.0674159e-20 7.1883058e-05)
(0.94534047 -1.0431578e-20 7.1839201e-05)
(0.9448498 1.0189123e-20 7.1795271e-05)
(0.94435926 0 7.1751366e-05)
(0.94386885 1.9409166e-20 7.1707526e-05)
(0.94337857 -9.4624988e-21 7.1663651e-05)
(0.94288843 -9.2205398e-21 7.1619825e-05)
(0.94239841 1.7957412e-20 7.1576047e-05)
(0.94190852 0 7.1532235e-05)
(0.94141877 8.49541e-21 7.1488487e-05)
(0.94092914 -8.2539474e-21 7.1444765e-05)
(0.94043964 8.0126112e-21 7.1400969e-05)
(0.93995028 0 7.1357198e-05)
(0.93946104 1.5060619e-20 7.1313494e-05)
(0.93897194 -7.289345e-21 7.1269751e-05)
(0.93848296 -7.0485054e-21 7.1226063e-05)
(0.93799412 6.8077916e-21 7.1182414e-05)
(0.9375054 -6.5671998e-21 7.1138747e-05)
(0.93701682 6.3267347e-21 7.1095115e-05)
(0.93652837 0 7.1051559e-05)
(0.93604004 5.846176e-21 7.1007843e-05)
(0.93555185 -5.6060823e-21 7.0964298e-05)
(0.93506378 5.3661154e-21 7.0920575e-05)
(0.93457585 -5.1262708e-21 7.0877222e-05)
(0.93408804 -4.8865518e-21 7.0833241e-05)
(0.93360038 0 7.0790442e-05)
(0.93311282 0 7.074571e-05)
(0.93262544 4.1681437e-21 7.0704221e-05)
(0.9321381 3.9289231e-21 7.0657437e-05)
(0.93165104 3.6898274e-21 7.0619485e-05)
(0.93116386 0 7.056665e-05)
(0.93067722 0 7.0538836e-05)
(0.93019003 -2.9732858e-21 7.046922e-05)
(0.92970411 -2.7346903e-21 7.0469565e-05)
(0.92921641 2.4962161e-21 7.0353016e-05)
(0.92873204 -2.257872e-21 7.0432337e-05)
(0.92824244 2.0196419e-21 7.0184693e-05)
(0.92776193 0 7.0487227e-05)
(0.92726651 1.543561e-21 6.9878433e-05)
(0.92679625 -1.3057494e-21 7.0828453e-05)
(0.92628371 1.0679629e-21 6.9253275e-05)
(0.92584101 -8.3046983e-22 7.2225224e-05)
(0.92527675 -5.928143e-22 6.7883601e-05)
(0.92491118 0 7.7800181e-05)
(0.92417901 0 5.4911709e-05)
(1.2731371 -7.3570076e-20 0.063742703)
(1.136888 -7.309354e-20 0.033171298)
(1.0211099 0 0.017144166)
(1.0012132 0 0.0053311028)
(0.98128059 2.149153e-19 0.0023970629)
(0.98171952 0 0.00057102708)
(0.97735896 1.4121957e-19 0.00041972876)
(0.9781463 0 0.00012082291)
(0.97660042 1.3917526e-19 0.00017867287)
(0.97664825 1.3815138e-19 0.000109743)
(0.97581069 -6.8568468e-20 0.00014082029)
(0.97551452 0 0.00011970477)
(0.97490153 -2.0265305e-19 0.00013145849)
(0.97447766 0 0.00012421672)
(0.97394202 -1.9960443e-19 0.00012836015)
(0.97347293 -1.3205405e-19 0.00012577731)
(0.97296456 0 0.00012718896)
(0.9724797 1.3002494e-19 0.00012623164)
(0.9719811 6.4505571e-20 0.00012667945)
(0.97149086 -1.2799775e-19 0.00012629371)
(0.97099586 6.3492454e-20 0.00012640245)
(0.97050389 1.2597252e-19 0.00012621784)
(0.97001033 -1.2496065e-19 0.00012620739)
(0.96951792 1.2394926e-19 0.0001260936)
(0.96902503 0 0.0001260412)
(0.96853263 6.096398e-20 0.00012595247)
(0.96804015 -1.2091805e-19 0.00012588522)
(0.96754792 0 0.00012580519)
(0.96705574 0 0.00012573287)
(0.96656374 0 0.00012565599)
(0.96607185 -5.8441674e-20 0.00012558186)
(0.96558009 -5.7937949e-20 0.00012550622)
(0.96508846 5.7434472e-20 0.00012543147)
(0.96459696 0 0.00012535627)
(0.96410558 -1.1285652e-19 0.00012528143)
(0.96361434 0 0.00012520629)
(0.96312323 5.5423034e-20 0.00012513131)
(0.96263224 -1.6476238e-19 0.00012505635)
(0.96214138 5.4418794e-20 0.00012498139)
(0.96165066 0 0.00012490648)
(0.96116006 0 0.00012483167)
(0.96066958 -1.0582857e-19 0.00012475679)
(0.96017924 0 0.00012468202)
(0.95968903 5.1912514e-20 0.00012460729)
(0.95919894 0 0.00012453245)
(0.95870899 0 0.00012445765)
(0.95821916 -1.0082342e-19 0.00012438294)
(0.95772946 0 0.0001243082)
(0.9572399 0 0.00012423352)
(0.95675046 -1.4673937e-19 0.00012415892)
(0.95626114 0 0.00012408428)
(0.95577196 0 0.00012400973)
(0.95528291 -9.4833521e-20 0.00012393523)
(0.95479398 0 0.00012386061)
(0.95430518 0 0.00012378603)
(0.95381651 -4.592262e-20 0.00012371156)
(0.95332797 0 0.00012363703)
(0.95283956 -8.9855528e-20 0.00012356259)
(0.95235128 -4.4430705e-20 0.00012348821)
(0.95186313 0 0.00012341379)
(0.9513751 0 0.00012333948)
(0.9508872 -8.5882034e-20 0.0001232652)
(0.95039944 0 0.00012319081)
(0.9499118 0 0.00012311645)
(0.94942428 -1.2436066e-19 0.0001230422)
(0.9489369 0 0.0001229679)
(0.94844965 -4.0463145e-20 0.00012289368)
(0.94796252 0 0.00012281953)
(0.94747553 0 0.00012274534)
(0.94698866 0 0.00012267125)
(0.94650192 -3.8485303e-20 0.00012259719)
(0.94601531 -3.799146e-20 0.00012252303)
(0.94552882 -1.124936e-19 0.0001224489)
(0.94504247 0 0.00012237487)
(0.94455624 0 0.0001223008)
(0.94407014 0 0.0001222268)
(0.94358417 -1.065779e-19 0.00012215288)
(0.94309833 0 0.00012207891)
(0.94261262 0 0.00012200504)
(0.94212704 -6.8099285e-20 0.00012193121)
(0.94164158 -3.3558028e-20 0.00012185727)
(0.94115625 0 0.00012178337)
(0.94067105 -3.2575546e-20 0.00012170957)
(0.94018598 0 0.00012163572)
(0.93970104 -3.1594055e-20 0.00012156195)
(0.93921622 0 0.00012148825)
(0.93873154 0 0.00012141451)
(0.93824698 -6.0247361e-20 0.00012134087)
(0.93776255 -2.9634049e-20 0.00012126726)
(0.93727825 -2.9144668e-20 0.00012119354)
(0.93679408 -2.8655534e-20 0.00012111987)
(0.93631003 -5.6333302e-20 0.00012104629)
(0.93582611 0 0.00012097267)
(0.93534233 0 0.00012089912)
(0.93485867 -8.0104449e-20 0.00012082565)
(0.93437513 0 0.00012075213)
(0.93389173 -2.5725944e-20 0.00012067871)
(0.93340845 0 0.00012060533)
(0.93292531 -2.47514e-20 0.00012053184)
(0.93244229 0 0.00012045838)
(0.9319594 -2.3777849e-20 0.00012038503)
(0.93147663 0 0.00012031163)
(0.930994 0 0.00012023831)
(0.93051149 -2.2319385e-20 0.00012016506)
(0.93002911 0 0.00012009177)
(0.92954686 -2.1348317e-20 0.00012001857)
(0.92906474 -4.1726317e-20 0.00011994542)
(0.92858274 -2.0378244e-20 0.00011987215)
(0.92810088 0 0.00011979892)
(0.92761914 -5.82275e-20 0.00011972579)
(0.92713753 0 0.00011965262)
(0.92665604 0 0.00011957952)
(0.92617469 -1.7957412e-20 0.0001195065)
(0.92569346 0 0.00011943343)
(0.92521236 -1.6990819e-20 0.00011936046)
(0.92473139 0 0.00011928753)
(0.92425055 -1.6025221e-20 0.00011921448)
(0.92376983 0 0.00011914148)
(0.92328924 -1.5060619e-20 0.00011906857)
(0.92280879 0 0.00011899562)
(0.92232845 0 0.00011892275)
(0.92184825 -4.0846749e-20 0.00011884994)
(0.92136817 0 0.00011877711)
(0.92088823 -1.2653468e-20 0.00011870434)
(0.92040841 -2.4345574e-20 0.00011863168)
(0.91992871 -1.1692351e-20 0.00011855877)
(0.91944915 0 0.00011848614)
(0.91896971 -1.073223e-20 0.00011841322)
(0.91849041 0 0.00011834089)
(0.91801122 0 0.00011826757)
(0.91753218 0 0.00011819611)
(0.91705323 0 0.00011812162)
(0.91657447 -8.3362863e-21 0.00011805223)
(0.91609574 -2.3573539e-20 0.0001179745)
(0.91561729 -7.3796536e-21 0.00011791068)
(0.91513872 0 0.00011782344)
(0.91466069 -1.2848041e-20 0.00011777555)
(0.91418211 0 0.00011766193)
(0.91370478 0 0.00011765835)
(0.91322569 -1.4977296e-20 0.0001174709)
(0.9127499 0 0.00011759157)
(0.91226893 -4.0392827e-21 0.00011719796)
(0.91179695 0 0.00011766997)
(0.91131022 -3.0871207e-21 0.00011670885)
(0.91084838 0 0.00011820166)
(0.91034473 -2.1359239e-21 0.00011572588)
(0.90991015 0 0.00012041779)
(0.90935552 0 0.00011361134)
(0.90899711 -1.4230922e-21 0.00012930866)
(0.9082779 0 9.2569382e-05)
(1.235575 0 0.088619381)
(1.1044649 1.4617981e-19 0.045931833)
(0.9933783 1.4537241e-19 0.023623625)
(0.97463916 0 0.0073755662)
(0.95536558 -2.8655332e-19 0.0033033938)
(0.95588462 0 0.00079680115)
(0.95162775 -1.4121957e-19 0.00057995038)
(0.95241307 0 0.00017155576)
(0.9508998 -1.3917526e-19 0.00024867735)
(0.95095223 -1.3815138e-19 0.00015502725)
(0.95013385 0 0.0001969928)
(0.94984771 0 0.00016838053)
(0.94925005 2.7020407e-19 0.00018428061)
(0.94883835 0 0.00017447249)
(0.94831674 2.6613925e-19 0.00018007742)
(0.94786057 1.3205405e-19 0.00017657737)
(0.94736578 0 0.00017848473)
(0.9468941 -1.3002493e-19 0.00017718517)
(0.9464089 -2.5802228e-19 0.00017778781)
(0.94593193 2.5599551e-19 0.000177262)
(0.94545028 -2.5396981e-19 0.00017740562)
(0.9449716 -1.2597252e-19 0.0001771521)
(0.94449136 1.2496065e-19 0.00017713437)
(0.94401225 -1.2394926e-19 0.00017697673)
(0.94353267 -1.2293837e-19 0.00017690221)
(0.94305356 -1.2192797e-19 0.0001767785)
(0.94257437 -5.0045317e-27 0.00017668387)
(0.94209544 0 0.00017657194)
(0.94161655 0 0.00017647045)
(0.94113783 0 0.00017636278)
(0.94065922 -5.0014756e-27 0.00017625885)
(0.94018074 0 0.00017615286)
(0.93970238 -1.1486895e-19 0.0001760481)
(0.93922415 0 0.0001759427)
(0.93874604 1.1285652e-19 0.00017583781)
(0.93826806 0 0.00017573251)
(0.9377902 -1.1084608e-19 0.00017562743)
(0.93731247 1.0984159e-19 0.00017552238)
(0.93683487 -1.088376e-19 0.00017541733)
(0.93635739 0 0.00017531235)
(0.93588004 0 0.00017520748)
(0.93540281 1.0582857e-19 0.00017510255)
(0.9349257 -1.0482656e-19 0.00017499776)
(0.93444872 -1.0382504e-19 0.00017489302)
(0.93397187 -1.02824e-19 0.00017478814)
(0.93349514 0 0.00017468331)
(0.93301854 1.0082342e-19 0.00017457861)
(0.93254206 0 0.00017447385)
(0.93206571 0 0.0001743692)
(0.93158948 9.7826245e-20 0.00017426464)
(0.93111338 0 0.00017416004)
(0.93063741 0 0.00017405556)
(0.93016155 9.483352e-20 0.00017395113)
(0.92968583 0 0.00017384657)
(0.92921023 0 0.00017374205)
(0.92873475 0 0.00017363767)
(0.9282594 0 0.00017353323)
(0.92778417 8.9855527e-20 0.00017342889)
(0.92730907 0 0.00017332465)
(0.9268341 0 0.00017322036)
(0.92635925 0 0.0001731162)
(0.92588452 8.5882033e-20 0.00017301209)
(0.92540992 0 0.00017290783)
(0.92493545 0 0.00017280363)
(0.9244611 8.2907105e-20 0.00017269956)
(0.92398687 8.1916456e-20 0.00017259544)
(0.92351277 0 0.00017249142)
(0.9230388 0 0.00017238749)
(0.92256495 0 0.00017228352)
(0.92209122 0 0.00017217967)
(0.92161762 7.6970614e-20 0.00017207588)
(0.92114415 7.5982929e-20 0.00017197194)
(0.9206708 7.4995735e-20 0.00017186805)
(0.92019757 0 0.0001717643)
(0.91972447 0 0.00017166049)
(0.91925149 0 0.00017155678)
(0.91877864 7.1051935e-20 0.00017145317)
(0.91830592 7.0067227e-20 0.00017134951)
(0.91783332 0 0.00017124598)
(0.91736084 6.8099285e-20 0.0001711425)
(0.91688849 0 0.00017103887)
(0.91641626 0 0.0001709353)
(0.91594416 0 0.00017083186)
(0.91547219 6.4169361e-20 0.00017072837)
(0.91500033 0 0.00017062498)
(0.91452861 0 0.00017052168)
(0.914057 0 0.00017041833)
(0.91358553 6.024736e-20 0.00017031512)
(0.91311417 5.9268107e-20 0.00017021195)
(0.91264295 5.8289343e-20 0.00017010864)
(0.91217184 0 0.00017000539)
(0.91170086 5.6333301e-20 0.00016990226)
(0.91123001 0 0.00016979908)
(0.91075928 0 0.000169696)
(0.91028868 5.3402967e-20 0.00016959302)
(0.9098182 5.2427185e-20 0.00016948999)
(0.90934784 0 0.00016938708)
(0.90887761 0 0.00016928424)
(0.90840751 0 0.00016918124)
(0.90793752 4.8529008e-20 0.0001690783)
(0.90746767 0 0.00016897548)
(0.90699794 4.6582899e-20 0.00016887262)
(0.90652833 0 0.00016876985)
(0.90605885 0 0.00016866719)
(0.90558949 0 0.00016856447)
(0.90512025 4.2696643e-20 0.00016846188)
(0.90465115 4.1726317e-20 0.00016835934)
(0.90418216 0 0.00016825666)
(0.9037133 3.9787169e-20 0.00016815403)
(0.90324457 3.8818334e-20 0.00016805153)
(0.90277595 3.7850006e-20 0.00016794898)
(0.90230747 0 0.00016784653)
(0.90183911 0 0.00016774418)
(0.90137087 3.494799e-20 0.00016764177)
(0.90090276 0 0.00016753949)
(0.90043477 0 0.00016743727)
(0.8999669 3.2050451e-20 0.0001673349)
(0.89949916 0 0.00016723258)
(0.89903155 0 0.0001671304)
(0.89856406 0 0.00016702816)
(0.89809669 2.8194032e-20 0.00016692603)
(0.89762945 2.7231167e-20 0.00016682397)
(0.89716233 2.6268809e-20 0.00016672191)
(0.89669534 0 0.0001666199)
(0.89622847 2.4345574e-20 0.00016651807)
(0.89576172 0 0.00016641589)
(0.8952951 2.242434e-20 0.00016631408)
(0.8948286 0 0.00016621189)
(0.89436224 2.0505093e-20 0.0001661105)
(0.89389598 0 0.00016600777)
(0.89342987 0 0.00016590756)
(0.89296385 0 0.00016580324)
(0.89249801 1.6672581e-20 0.00016570584)
(0.89203221 3.1431392e-20 0.00016559714)
(0.89156667 1.4759316e-20 0.00016550728)
(0.89110102 0 0.00016538569)
(0.89063589 1.2848041e-20 0.00016531745)
(0.89017022 0 0.00016516008)
(0.88970578 1.0938772e-20 0.00016515191)
(0.88923962 9.9848654e-21 0.00016489444)
(0.88877668 9.0314982e-21 0.00016505477)
(0.88830866 0 0.0001645178)
(0.88784948 0 0.00016515462)
(0.88737579 0 0.0001638485)
(0.88692658 5.2230058e-21 0.00016587042)
(0.88643627 0 0.00016251379)
(0.88601386 3.3218835e-21 0.00016887864)
(0.88547366 0 0.00015966813)
(0.88512599 1.4230922e-21 0.00018094276)
(0.88442619 0 0.0001307855)
(1.1857485 0 0.11292469)
(1.0614262 -1.4617981e-19 0.058109021)
(0.95648217 -1.4537241e-19 0.029774717)
(0.93923298 0 0.0093145504)
(0.92082057 1.4327653e-19 0.0041708203)
(0.92143933 0 0.0010131102)
(0.91732033 0 0.0007368051)
(0.91810193 2.8036921e-19 0.00022221133)
(0.91663249 0 0.00031869555)
(0.91669078 0 0.00020082086)
(0.91589812 0 0.00025352621)
(0.91562526 0 0.00021754032)
(0.91504811 -1.3510203e-19 0.0002375215)
(0.91465259 -2.6817008e-19 0.00022518709)
(0.91414971 -1.3306962e-19 0.00023222979)
(0.91371075 0 0.00022782642)
(0.91323407 -2.6207875e-19 0.00023022105)
(0.91277996 0 0.00022858408)
(0.91231265 3.8703343e-19 0.00022933848)
(0.91185336 1.2799777e-19 0.00022867426)
(0.9113895 1.2698491e-19 0.0002288516)
(0.91092855 0 0.00022852968)
(0.91046607 2.4992132e-19 0.0002285042)
(0.91000469 0 0.00022830281)
(0.90954285 -1.2293838e-19 0.00022820593)
(0.90908147 -1.2192798e-19 0.00022804721)
(0.90862001 -1.2091807e-19 0.00022792504)
(0.90815879 0 0.00022778113)
(0.90769763 -2.3779945e-19 0.00022765034)
(0.90723662 -2.3578258e-19 0.00022751179)
(0.90677571 -1.1688336e-19 0.00022737793)
(0.90631494 -2.3175182e-19 0.0002272415)
(0.90585427 -1.1486896e-19 0.00022710659)
(0.90539374 -2.27725e-19 0.00022697091)
(0.90493332 -2.2571307e-19 0.00022683587)
(0.90447302 -2.2370212e-19 0.00022670029)
(0.90401284 1.1084607e-19 0.00022656498)
(0.90355279 -2.1968319e-19 0.00022642974)
(0.90309285 -1.0883761e-19 0.00022629448)
(0.90263304 -2.156682e-19 0.00022615931)
(0.90217334 -2.136622e-19 0.0002260243)
(0.90171377 -2.1165717e-19 0.0002258892)
(0.90125432 -1.0482657e-19 0.00022575428)
(0.90079498 -1.0382505e-19 0.00022561943)
(0.90033577 -1.0282401e-19 0.00022548438)
(0.89987668 0 0.00022534941)
(0.89941771 -2.0164685e-19 0.00022521461)
(0.89895886 -1.9964775e-19 0.00022507973)
(0.89850013 -1.9764963e-19 0.00022494499)
(0.89804152 1.9565251e-19 0.00022481038)
(0.89758303 -1.9365637e-19 0.00022467569)
(0.89712467 -1.9166122e-19 0.00022454117)
(0.89666642 -1.8966706e-19 0.00022440673)
(0.89620829 -1.8767389e-19 0.00022427208)
(0.89575029 0 0.00022413752)
(0.8952924 1.8369051e-19 0.00022400312)
(0.89483463 -1.817003e-19 0.00022386865)
(0.89437699 -1.7971108e-19 0.00022373431)
(0.89391947 1.7772285e-19 0.0002236001)
(0.89346206 -1.757356e-19 0.00022346582)
(0.89300478 -1.7374935e-19 0.0002233317)
(0.89254761 -1.7176409e-19 0.00022319767)
(0.89209057 -1.6977981e-19 0.00022306343)
(0.89163365 0 0.00022292926)
(0.89117685 1.6581423e-19 0.00022279528)
(0.89072016 -8.1916455e-20 0.00022266121)
(0.8902636 -1.6185261e-19 0.00022252727)
(0.88980716 1.5987328e-19 0.00022239347)
(0.88935084 0 0.00022225959)
(0.88889464 -1.5591759e-19 0.00022212588)
(0.88843856 -2.3091185e-19 0.00022199225)
(0.8879826 -2.279488e-19 0.00022185841)
(0.88752676 -1.4999149e-19 0.00022172465)
(0.88707104 1.4801811e-19 0.00022159107)
(0.88661544 0 0.00022145741)
(0.88615996 -1.440743e-19 0.00022132388)
(0.8857046 1.4210389e-19 0.00022119048)
(0.88524936 -7.0067226e-20 0.000221057)
(0.88479425 -1.3816603e-19 0.0002209237)
(0.88433925 -1.3619859e-19 0.00022079047)
(0.88388437 -1.3423214e-19 0.00022065704)
(0.88342961 -1.3226668e-19 0.00022052368)
(0.88297497 1.3030221e-19 0.0002203905)
(0.88252046 -6.416936e-20 0.00022025724)
(0.88206606 -1.2637625e-19 0.00022012412)
(0.88161178 1.2441476e-19 0.00021999112)
(0.88115763 0 0.00021985805)
(0.88070359 -1.2049474e-19 0.00021972515)
(0.88024967 -1.7780433e-19 0.00021959232)
(0.87979587 -1.7486804e-19 0.0002194593)
(0.8793422 -1.1462216e-19 0.00021932634)
(0.87888864 1.1266662e-19 0.00021919357)
(0.8784352 0 0.00021906071)
(0.87798189 -1.0875852e-19 0.00021892799)
(0.87752869 1.0680596e-19 0.0002187954)
(0.87707561 -5.2427185e-20 0.00021866273)
(0.87662266 0 0.00021853023)
(0.87616982 -1.0095422e-19 0.00021839781)
(0.8757171 -9.9005627e-20 0.00021826519)
(0.87526451 -4.8529008e-20 0.00021813264)
(0.87481203 9.5111424e-20 0.00021800026)
(0.87435967 -4.6582899e-20 0.00021786781)
(0.87390744 0 0.00021773549)
(0.87345532 8.9277568e-20 0.0002176033)
(0.87300332 0 0.00021747103)
(0.87255145 -4.2696643e-20 0.00021733894)
(0.87209969 -8.3452656e-20 0.00021720692)
(0.87164805 -8.1513005e-20 0.0002170747)
(0.87119653 -3.9787169e-20 0.00021694255)
(0.87074514 7.7636691e-20 0.00021681058)
(0.87029386 -3.7850005e-20 0.00021667853)
(0.8698427 0 0.00021654662)
(0.86939166 7.1829675e-20 0.00021641483)
(0.86894075 -3.4947989e-20 0.00021628296)
(0.86848995 0 0.00021615127)
(0.86803927 -6.6031612e-20 0.00021601966)
(0.86758871 -9.6151364e-20 0.00021588784)
(0.86713827 0 0.00021575609)
(0.86668795 6.0242505e-20 0.00021562453)
(0.86623775 0 0.00021549287)
(0.86578767 -2.8194032e-20 0.00021536137)
(0.86533771 5.4462356e-20 0.00021522997)
(0.86488787 -2.6268809e-20 0.00021509853)
(0.86443815 0 0.0002149672)
(0.86398855 0 0.00021483607)
(0.86353907 0 0.00021470451)
(0.86308971 -2.2424339e-20 0.00021457341)
(0.86264046 4.2928948e-20 0.00021444183)
(0.86219134 -2.0505093e-20 0.00021431127)
(0.86174234 0 0.00021417902)
(0.86129346 3.7175694e-20 0.00021404994)
(0.86084468 0 0.00021391569)
(0.86039607 -1.6672581e-20 0.00021379014)
(0.85994749 -1.5715698e-20 0.0002136504)
(0.85949917 -1.4759315e-20 0.00021353434)
(0.85905074 0 0.00021337835)
(0.85860282 2.5696103e-20 0.0002132895)
(0.85815437 0 0.00021308852)
(0.85770712 -1.0938771e-20 0.00021307524)
(0.85725818 1.9969753e-20 0.00021274833)
(0.85681239 -9.0314981e-21 0.00021294703)
(0.85636164 0 0.00021226848)
(0.85591951 0 0.00021306672)
(0.85546322 0 0.00021142061)
(0.85503083 -5.2230058e-21 0.00021396132)
(0.85455832 8.5437312e-21 0.00020973681)
(0.85415213 -3.3218835e-21 0.00021773401)
(0.85363118 0 0.00020616271)
(0.85329778 2.8461631e-21 0.00023280535)
(0.85262381 0 0.00016971758)
(1.1238829 2.9396102e-19 0.13645396)
(1.0079391 -2.9233639e-19 0.069553289)
(0.91049017 -2.9072829e-19 0.035510089)
(0.89501476 2.8843794e-19 0.011124253)
(0.87765295 0 0.0049886444)
(0.8783843 2.8442489e-19 0.0012183672)
(0.87443761 0 0.00088904358)
(0.8752126 -2.8036921e-19 0.00027303814)
(0.87379869 0 0.0003885954)
(0.87386377 0 0.0002473567)
(0.87310356 0 0.00031047463)
(0.87284714 0 0.00026735358)
(0.87229571 2.7020407e-19 0.00029128441)
(0.87192036 2.6817008e-19 0.00027650343)
(0.87144093 2.6613927e-19 0.00028493663)
(0.87102347 0 0.00027965774)
(0.87056943 2.6207875e-19 0.00028252291)
(0.87013728 -2.6004991e-19 0.0002805582)
(0.86969232 -5.160446e-19 0.0002814584)
(0.86925515 -2.5599552e-19 0.00028065907)
(0.86881354 -2.5396984e-19 0.00028086794)
(0.86837474 -2.5194508e-19 0.0002804787)
(0.86793446 -2.4992132e-19 0.0002804446)
(0.86749524 0 0.00028019975)
(0.86705558 2.4587675e-19 0.00028008011)
(0.86661636 2.4385594e-19 0.0002798864)
(0.86617706 2.4183612e-19 0.00027973645)
(0.86573799 0 0.00027956048)
(0.86529897 2.3779945e-19 0.00027940023)
(0.8648601 2.3578258e-19 0.00027923066)
(0.86442133 2.3376671e-19 0.00027906673)
(0.86398268 2.3175182e-19 0.00027889972)
(0.86354414 2.2973791e-19 0.00027873453)
(0.86310572 2.27725e-19 0.00027856841)
(0.86266741 2.2571307e-19 0.00027840307)
(0.86222922 2.2370212e-19 0.00027823707)
(0.86179114 0 0.00027807141)
(0.86135318 2.1968319e-19 0.00027790582)
(0.86091533 2.176752e-19 0.00027774021)
(0.8604776 2.156682e-19 0.00027757472)
(0.86003998 2.1366219e-19 0.00027740943)
(0.85960247 2.1165717e-19 0.00027724401)
(0.85916508 2.0965313e-19 0.00027707881)
(0.85872781 2.0765008e-19 0.00027691372)
(0.85829065 2.0564801e-19 0.00027674836)
(0.8578536 0 0.00027658311)
(0.85741667 2.0164685e-19 0.00027641807)
(0.85697986 1.9964775e-19 0.00027625292)
(0.85654316 1.9764963e-19 0.00027608794)
(0.85610657 -1.9565251e-19 0.00027592313)
(0.8556701 1.9365637e-19 0.00027575821)
(0.85523374 1.9166122e-19 0.00027559351)
(0.8547975 1.8966706e-19 0.00027542891)
(0.85436137 1.8767388e-19 0.00027526405)
(0.85392536 0 0.00027509929)
(0.85348946 -1.836905e-19 0.00027493474)
(0.85305368 1.8170029e-19 0.00027477009)
(0.85261801 1.7971107e-19 0.00027460561)
(0.85218245 -1.7772285e-19 0.00027444129)
(0.85174701 1.757356e-19 0.00027427687)
(0.85131169 1.7374935e-19 0.00027411266)
(0.85087648 1.7176409e-19 0.00027394855)
(0.85044138 1.6977981e-19 0.00027378418)
(0.8500064 0 0.00027361992)
(0.84957153 -1.6581423e-19 0.00027345587)
(0.84913678 0 0.00027329171)
(0.84870214 1.618526e-19 0.00027312772)
(0.84826762 -1.5987328e-19 0.0002729639)
(0.84783321 0 0.00027279996)