/*--------------------------------*- C++ -*----------------------------------*\
  =========                 |
  \\      /  F ield         | OpenFOAM: The Open Source CFD Toolbox
   \\    /   O peration     | Website:  https://openfoam.org
    \\  /    A nd           | Version:  6
     \\/     M anipulation  |
\*---------------------------------------------------------------------------*/
FoamFile
{
    version     2.0;
    format      ascii;
    class       volVectorField;
    location    "10000";
    object      grad(p);
}
// * * * * * * * * * * * * * * * * * * * * * * * * * * * * * * * * * * * * * //

dimensions      [0 1 -2 0 0 0 0];

internalField   nonuniform List<vector> 
250
(
(-184870.51 0 -9349.6748)
(-297498.04 0 3720.5809)
(-252118.87 0 -1573.9348)
(-268927.87 0 584.54591)
(-262601.96 0 -218.48317)
(-265083.48 0 85.470085)
(-264230.05 0 -27.679919)
(-264641.31 0 15.11335)
(-264573.46 0 -2.5214322)
(-264687.5 0 5.0479556)
(-264732.74 0 2.5265285)
(-264804.24 0 5.0581689)
(-264865.99 0 2.5316456)
(-264931.74 0 5.0684237)
(-264995.99 0 5.0735667)
(-265060.99 0 2.5393601)
(-265126.24 0 2.541942)
(-265191.49 0 2.5445293)
(-265256.74 0 2.5471217)
(-265322.49 0 2.5497195)
(-265388.24 0 2.5523226)
(-265453.99 0 2.554931)
(-265520.24 0 2.5575448)
(-265586.24 0 5.1203277)
(-265652.49 0 2.5627883)
(-265719.24 0 2.5654182)
(-265785.99 0 2.5680534)
(-265852.74 0 5.1413882)
(-265919.49 0 5.1466804)
(-265986.74 0 2.5759918)
(-266054.19 0 2.5786488)
(-266121.64 0 3.6138358)
(-266189.24 0 3.6175711)
(-266257.04 0 3.3626487)
(-266325.01 0 3.3661315)
(-266393.14 0 3.3696216)
(-266461.44 0 3.3731188)
(-266529.91 0 3.3766234)
(-266598.54 0 3.3801352)
(-266667.29 0 3.3836543)
(-266736.31 0 3.3871808)
(-266805.29 0 3.3907147)
(-266875.01 0 3.3942559)
(-266943.34 0 3.3978045)
(-267015.96 0 3.1397174)
(-267077.89 0 4.1906757)
(-267168.58 0 1.5731515)
(-267183.9 0 8.3989501)
(-267397.37 0 -10.325801)
(-267043.73 0 30.142031)
(-183567.96 0 -24407.204)
(-296719.28 0 6992.9895)
(-252432.67 0 -3052.6316)
(-268792.41 0 1131.4601)
(-262651.79 0 -419.38724)
(-265064.44 0 170.94017)
(-264237.06 0 -50.327126)
(-264638.8 0 32.745592)
(-264574.46 0 0)
(-264687 0 12.619889)
(-264732.73 0 7.5795857)
(-264804.24 0 10.116338)
(-264865.99 0 10.126582)
(-264931.49 0 10.136847)
(-264996.24 0 10.147133)
(-265061.24 0 10.15744)
(-265126.24 0 10.167768)
(-265191.49 0 10.178117)
(-265256.74 0 10.188487)
(-265322.49 0 7.6491586)
(-265388.24 0 10.20929)
(-265453.99 0 10.219724)
(-265519.99 0 10.230179)
(-265586.24 0 10.240655)
(-265652.74 0 7.6883649)
(-265719.24 0 10.261673)
(-265785.74 0 10.272214)
(-265852.49 0 10.282776)
(-265919.74 0 10.293361)
(-265986.99 0 10.303967)
(-266054.09 0 10.314595)
(-266121.54 0 9.808983)
(-266189.26 0 9.8191214)
(-266257.06 0 9.8292809)
(-266325.01 0 9.8394614)
(-266393.14 0 9.5904614)
(-266461.44 0 9.6004152)
(-266529.91 0 9.6103896)
(-266598.54 0 9.8803952)
(-266667.29 0 9.8906819)
(-266736.31 0 9.6404377)
(-266805.29 0 9.6504956)
(-266875.01 0 9.6605744)
(-266943.36 0 9.9320439)
(-267015.88 0 9.1575092)
(-267078.04 0 11.262441)
(-267168.18 0 6.2926062)
(-267185.03 0 19.160105)
(-267395.3 0 -17.235943)
(-267045.6 0 64.781694)
(-181743.14 0 -39247.124)
(-295360.15 0 7373.5603)
(-252705.53 0 -3310.7769)
(-268664.67 0 1231.8113)
(-262697.87 0 -444.50025)
(-265046.66 0 193.56461)
(-264243.82 0 -47.81077)
(-264636.3 0 42.821159)
(-264575.46 0 10.085729)
(-264686.74 0 20.191822)
(-264732.98 0 17.6857)
(-264803.99 0 17.703591)
(-264865.98 0 17.721519)
(-264931.73 0 17.739483)
(-264995.98 0 17.757484)
(-265060.98 0 17.775521)
(-265126.23 0 17.793594)
(-265191.48 0 20.356234)
(-265256.98 0 17.829852)
(-265322.48 0 17.848037)
(-265387.98 0 17.866258)
(-265453.98 0 17.884517)
(-265520.23 0 17.902813)
(-265586.48 0 17.921147)
(-265652.48 0 17.939518)
(-265718.98 0 17.957927)
(-265785.98 0 17.976374)
(-265852.73 0 17.994859)
(-265919.48 0 18.013381)
(-265986.73 0 18.031942)
(-266054.23 0 18.050542)
(-266121.68 0 18.32731)
(-266189.23 0 18.346253)
(-266257.03 0 18.365235)
(-266325.03 0 18.384257)
(-266393.16 0 18.403318)
(-266461.43 0 18.422418)
(-266529.88 0 18.441558)
(-266598.51 0 18.720749)
(-266667.31 0 18.479958)
(-266736.33 0 18.499218)
(-266805.28 0 18.518519)
(-266874.98 0 18.537859)
(-266943.38 0 18.81861)
(-267015.83 0 18.053375)
(-267078.16 0 20.167627)
(-267167.82 0 14.94494)
(-267186.13 0 28.608924)
(-267393.04 0 -11.219128)
(-267048.22 0 85.165702)
(-178925.3 0 -52873.937)
(-293123.27 0 7591.3871)
(-253047.4 0 -3403.5088)
(-268505.92 0 1289.5133)
(-262755.45 0 -447.01155)
(-265024.87 0 213.67521)
(-264252.08 0 -37.745345)
(-264633.03 0 57.934509)
(-264576.71 0 22.69289)
(-264686.24 0 35.335689)
(-264732.97 0 32.844871)
(-264804.23 0 32.878098)
(-264865.98 0 32.911392)
(-264931.48 0 32.944754)
(-264996.23 0 32.978184)
(-265061.23 0 33.011681)
(-265125.98 0 30.503305)
(-265191.48 0 33.07888)
(-265256.98 0 33.112583)
(-265322.48 0 33.146354)
(-265388.23 0 33.180194)
(-265453.98 0 33.214103)
(-265519.98 0 30.690537)
(-265586.23 0 33.28213)
(-265652.73 0 33.316248)
(-265719.23 0 30.785018)
(-265785.73 0 33.384694)
(-265852.48 0 33.419023)
(-265919.73 0 33.453423)
(-265986.98 0 30.911901)
(-266054.05 0 33.522434)
(-266121.5 0 33.298916)
(-266189.25 0 33.333333)
(-266257.05 0 33.367822)
(-266325 0 33.402382)
(-266393.13 0 33.437014)
(-266461.43 0 33.471718)
(-266529.88 0 33.506494)
(-266598.53 0 33.541342)
(-266667.3 0 33.576262)
(-266736.3 0 33.611256)
(-266805.28 0 33.646322)
(-266874.98 0 33.681462)
(-266943.4 0 33.978045)
(-267015.75 0 33.228676)
(-267078.33 0 35.096909)
(-267167.37 0 29.889879)
(-267187.51 0 44.094488)
(-267389.93 0 3.1529164)
(-267052.58 0 110.44187)
(-175703.61 0 -28684.342)
(-290413 0 3490.2354)
(-253335.34 0 -1571.4286)
(-268369.53 0 604.61616)
(-262805.17 0 -203.41537)
(-265005.88 0 105.58069)
(-264259.33 0 -12.581782)
(-264630.29 0 32.745592)
(-264577.71 0 15.128593)
(-264685.74 0 22.7158)
(-264733.23 0 20.212228)
(-264803.98 0 20.232676)
(-264865.98 0 22.78481)
(-264931.73 0 20.273695)
(-264995.98 0 20.294267)
(-265061.23 0 22.854241)
(-265126.23 0 20.335536)
(-265191.23 0 20.356234)
(-265256.98 0 22.924096)
(-265322.48 0 20.397756)
(-265387.98 0 22.970904)
(-265454.23 0 22.994379)
(-265520.23 0 20.460358)
(-265586.23 0 20.481311)
(-265652.73 0 20.502307)
(-265718.98 0 20.523345)
(-265785.73 0 23.112481)
(-265852.73 0 20.565553)
(-265919.73 0 20.586722)
(-265986.73 0 20.607934)
(-266054 0 23.207839)
(-266121.7 0 21.166753)
(-266189.23 0 21.18863)
(-266257.03 0 21.469219)
(-266325.03 0 21.491455)
(-266393.15 0 21.254536)
(-266461.43 0 21.276596)
(-266529.88 0 21.298701)
(-266598.5 0 21.320853)
(-266667.3 0 21.603332)
(-266736.33 0 21.365294)
(-266805.28 0 21.387585)
(-266874.95 0 21.409922)
(-266943.43 0 21.693675)
(-267015.73 0 21.193093)
(-267078.48 0 22.001048)
(-267166.97 0 19.664394)
(-267188.68 0 26.246719)
(-267386.74 0 7.4619023)
(-267059 0 59.915834)
)
;

boundaryField
{
    inlet
    {
        type            extrapolatedCalculated;
        value           nonuniform List<vector> 5((0 0 -9349.6748) (0 0 -24407.204) (0 0 -39247.124) (0 0 -52873.937) (0 0 -28684.342));
    }
    outlet
    {
        type            extrapolatedCalculated;
        value           nonuniform List<vector> 5((-266422.85 0 30.142031) (-266434.31 0 64.781694) (-266447.48 0 85.165702) (-266466.69 0 110.44187) (-266489.46 0 59.915834));
    }
    walls
    {
        type            extrapolatedCalculated;
        value           nonuniform List<vector> 
50
(
(-175689.22 0 87.844612)
(-290414.68 0 145.20734)
(-253334.49 0 126.66725)
(-268369.76 0 134.18488)
(-262805 0 131.4025)
(-265005.87 0 132.50294)
(-264259.26 0 132.12963)
(-264630.24 0 132.31512)
(-264577.65 0 132.28883)
(-264685.68 0 132.34284)
(-264733.17 0 132.36659)
(-264803.93 0 132.40196)
(-264865.92 0 132.43296)
(-264931.68 0 132.46584)
(-264995.92 0 132.49796)
(-265061.17 0 132.53059)
(-265126.17 0 132.56309)
(-265191.17 0 132.59559)
(-265256.92 0 132.62846)
(-265322.42 0 132.66121)
(-265387.92 0 132.69396)
(-265454.17 0 132.72709)
(-265520.17 0 132.76009)
(-265586.17 0 132.79309)
(-265652.67 0 132.82634)
(-265718.92 0 132.85946)
(-265785.67 0 132.89284)
(-265852.67 0 132.92634)
(-265919.67 0 132.95984)
(-265986.67 0 132.99334)
(-266053.95 0 133.02697)
(-266121.65 0 133.06082)
(-266189.17 0 133.09459)
(-266256.97 0 133.12849)
(-266324.97 0 133.16249)
(-266393.1 0 133.19655)
(-266461.37 0 133.23069)
(-266529.82 0 133.26491)
(-266598.45 0 133.29922)
(-266667.25 0 133.33362)
(-266736.27 0 133.36814)
(-266805.22 0 133.40261)
(-266874.9 0 133.43745)
(-266943.37 0 133.47169)
(-267015.67 0 133.50784)
(-267078.43 0 133.53921)
(-267166.91 0 133.58346)
(-267188.63 0 133.59431)
(-267386.68 0 133.69334)
(-267058.96 0 133.52948)
)
;
    }
    centreline
    {
        type            symmetryPlane;
    }
    frontAndBack
    {
        type            empty;
    }
}


// ************************************************************************* //
