/*--------------------------------*- C++ -*----------------------------------*\
  =========                 |
  \\      /  F ield         | OpenFOAM: The Open Source CFD Toolbox
   \\    /   O peration     | Website:  https://openfoam.org
    \\  /    A nd           | Version:  6
     \\/     M anipulation  |
\*---------------------------------------------------------------------------*/
FoamFile
{
    version     2.0;
    format      ascii;
    class       volVectorField;
    location    "10000";
    object      U;
}
// * * * * * * * * * * * * * * * * * * * * * * * * * * * * * * * * * * * * * //

dimensions      [0 1 -1 0 0 0 0];

internalField   nonuniform List<vector> 
250
(
(1.1087112 0 0.0093551707)
(1.4776253 0 -0.0047276762)
(1.3280821 0 0.0021620838)
(1.3799568 0 -0.00060999274)
(1.356867 0 0.0004013686)
(1.3623344 0 1.357292e-05)
(1.3570143 0 0.00015933206)
(1.3557843 0 0.0001038129)
(1.3530085 0 0.00012449676)
(1.3508212 0 0.00011635644)
(1.3484138 0 0.00011912405)
(1.3460928 0 0.00011776399)
(1.343742 0 0.00011796656)
(1.3414054 0 0.00011757792)
(1.3390663 0 0.00011741342)
(1.3367311 0 0.00011716438)
(1.3343974 0 0.00011694767)
(1.332066 0 0.00011671903)
(1.3297367 0 0.00011649522)
(1.3274095 0 0.0001162699)
(1.3250845 0 0.00011604547)
(1.3227615 0 0.00011582102)
(1.3204407 0 0.00011559689)
(1.318122 0 0.00011537296)
(1.3158054 0 0.00011514927)
(1.313491 0 0.00011492581)
(1.3111786 0 0.00011470257)
(1.3088684 0 0.00011447957)
(1.3065603 0 0.0001142568)
(1.3042543 0 0.00011403425)
(1.3019505 0 0.00011381193)
(1.2996487 0 0.00011358985)
(1.2973491 0 0.00011336799)
(1.2950516 0 0.00011314636)
(1.2927562 0 0.00011292498)
(1.290463 0 0.00011270375)
(1.2881718 0 0.00011248299)
(1.2858828 0 0.00011226179)
(1.2835959 0 0.00011204262)
(1.281311 0 0.0001118189)
(1.2790285 0 0.000111608)
(1.2767475 0 0.00011136422)
(1.2744704 0 0.0001112077)
(1.2721905 0 0.00011082272)
(1.2699255 0 0.00011103933)
(1.2676292 0 0.00010968004)
(1.2654228 0 0.00011250377)
(1.2629858 0 0.00010472749)
(1.2611469 0 0.00012883232)
(1.2575717 0 9.0855374e-05)
(1.0199114 0 0.026587559)
(1.364146 0 -0.013202953)
(1.2257615 0 0.0060734734)
(1.2738713 0 -0.001679197)
(1.2524903 0 0.001147876)
(1.2575694 0 6.3447611e-05)
(1.252652 0 0.00047094532)
(1.2515246 0 0.00031565598)
(1.2489649 0 0.00037344586)
(1.2469504 0 0.0003506361)
(1.244732 0 0.00035832852)
(1.2425936 0 0.00035447841)
(1.2404276 0 0.00035499817)
(1.2382747 0 0.00035386464)
(1.2361195 0 0.00035335801)
(1.2339679 0 0.00035261495)
(1.2318177 0 0.00035196237)
(1.2296696 0 0.00035127647)
(1.2275234 0 0.00035060414)
(1.2253792 0 0.00034992763)
(1.2232369 0 0.00034925364)
(1.2210966 0 0.00034857965)
(1.2189582 0 0.0003479066)
(1.2168218 0 0.00034723416)
(1.2146873 0 0.00034656242)
(1.2125548 0 0.00034589137)
(1.2104243 0 0.000345221)
(1.2082956 0 0.00034455133)
(1.206169 0 0.00034388233)
(1.2040443 0 0.00034321404)
(1.2019215 0 0.00034254642)
(1.1998007 0 0.00034187949)
(1.1976818 0 0.00034121325)
(1.1955649 0 0.00034054768)
(1.19345 0 0.00033988288)
(1.191337 0 0.0003392185)
(1.1892259 0 0.00033855553)
(1.1871168 0 0.00033789133)
(1.1850096 0 0.00033723289)
(1.1829043 0 0.00033656175)
(1.1808012 0 0.00033592653)
(1.1786995 0 0.00033519934)
(1.1766013 0 0.00033471644)
(1.1745006 0 0.00033359403)
(1.1724137 0 0.0003341559)
(1.1702977 0 0.00033030614)
(1.168265 0 0.00033817037)
(1.1660187 0 0.00031639112)
(1.1643269 0 0.00038411414)
(1.1610291 0 0.00027895517)
(0.84408693 0 0.040042575)
(1.137133 0 -0.019697389)
(1.0211549 0 0.0091191836)
(1.0616956 0 -0.0024351063)
(1.0437396 0 0.0017787507)
(1.0480385 0 0.00016186501)
(1.0439277 0 0.00076923503)
(1.0430052 0 0.00053759435)
(1.0408776 0 0.00062363144)
(1.0392087 0 0.00058950099)
(1.0373683 0 0.00060084835)
(1.0355951 0 0.00059498584)
(1.0337987 0 0.00059563913)
(1.0320133 0 0.00059382735)
(1.0302259 0 0.00059295046)
(1.0284415 0 0.00059172114)
(1.0266582 0 0.00059062686)
(1.0248768 0 0.00058948301)
(1.0230968 0 0.00058835951)
(1.0213185 0 0.00058722988)
(1.0195418 0 0.00058610414)
(1.0177667 0 0.00058497851)
(1.0159933 0 0.00058385441)
(1.0142214 0 0.00058273131)
(1.0124512 0 0.0005816094)
(1.0106826 0 0.00058048862)
(1.0089155 0 0.00057936898)
(1.0071501 0 0.00057825048)
(1.0053863 0 0.00057713312)
(1.0036242 0 0.00057601691)
(1.0018636 0 0.00057490183)
(1.0001046 0 0.0005737879)
(0.9983473 0 0.00057267512)
(0.99659157 0 0.00057156342)
(0.99483745 0 0.00057045302)
(0.99308494 0 0.00056934335)
(0.99133404 0 0.00056823591)
(0.98958474 0 0.00056712672)
(0.98783708 0 0.00056602628)
(0.98609096 0 0.00056490697)
(0.98434665 0 0.00056384142)
(0.9826034 0 0.00056263865)
(0.9808632 0 0.00056180077)
(0.97912084 0 0.00056000809)
(0.97739 0 0.00056073059)
(0.97563468 0 0.00055486596)
(0.97394946 0 0.0005664973)
(0.97208459 0 0.00053391888)
(0.97068652 0 0.00063534198)
(0.96794352 0 0.00048109792)
(0.5845172 0 0.04774413)
(0.79638223 0 -0.024172436)
(0.71445938 0 0.011261087)
(0.74336858 0 -0.0028638901)
(0.73063921 0 0.0022921267)
(0.73373257 0 0.00031346706)
(0.73084501 0 0.0010564369)
(0.73022465 0 0.00077278355)
(0.72874733 0 0.00087785723)
(0.72759613 0 0.00083588563)
(0.72632291 0 0.00084956527)
(0.72509745 0 0.00084218503)
(0.72385542 0 0.00084277868)
(0.72262119 0 0.00084035583)
(0.72138554 0 0.00083907729)
(0.72015195 0 0.00083736763)
(0.7189191 0 0.00083582344)
(0.7176875 0 0.00083421876)
(0.71645695 0 0.00083263919)
(0.71522752 0 0.00083105231)
(0.71399919 0 0.00082947039)
(0.71277198 0 0.00082788878)
(0.71154586 0 0.00082630925)
(0.71032085 0 0.00082473113)
(0.70909695 0 0.00082315467)
(0.70787415 0 0.00082157976)
(0.70665246 0 0.00082000646)
(0.70543187 0 0.00081843474)
(0.70421239 0 0.00081686463)
(0.70299401 0 0.00081529608)
(0.70177673 0 0.00081372915)
(0.70056056 0 0.00081216377)
(0.69934549 0 0.00081060003)
(0.69813153 0 0.00080903779)
(0.69691867 0 0.00080747735)
(0.69570691 0 0.00080591796)
(0.69449626 0 0.00080436153)
(0.6932867 0 0.00080280312)
(0.69207827 0 0.00080125565)
(0.69087088 0 0.00079968521)
(0.68966475 0 0.00079818088)
(0.68845933 0 0.00079650855)
(0.68725603 0 0.0007952836)
(0.68605116 0 0.00079288872)
(0.68485443 0 0.00079357648)
(0.68364026 0 0.00078619201)
(0.68247591 0 0.00080025197)
(0.68118386 0 0.00076017985)
(0.68022412 0 0.00088452151)
(0.67831498 0 0.00069980676)
(0.24629799 0 0.047486414)
(0.34162003 0 -0.026441489)
(0.30598865 0 0.0124433)
(0.31878775 0 -0.0029350063)
(0.31322948 0 0.0026855476)
(0.31463653 0 0.00052826492)
(0.31340951 0 0.0013378415)
(0.31318087 0 0.0010282884)
(0.31257474 0 0.0011425038)
(0.3121122 0 0.0010964164)
(0.31159585 0 0.0011109995)
(0.31110048 0 0.0011026232)
(0.31059775 0 0.0011029406)
(0.3100984 0 0.0010999696)
(0.30959836 0 0.0010982465)
(0.30909917 0 0.0010960537)
(0.30860025 0 0.0010940416)
(0.30810182 0 0.0010919638)
(0.30760379 0 0.0010899137)
(0.3071062 0 0.001087856)
(0.30660903 0 0.0010858039)
(0.3061123 0 0.0010837525)
(0.30561599 0 0.0010817037)
(0.3051201 0 0.0010796567)
(0.30462465 0 0.0010776119)
(0.30412963 0 0.001075569)
(0.30363503 0 0.0010735282)
(0.30314086 0 0.0010714894)
(0.30264711 0 0.0010694527)
(0.3021538 0 0.001067418)
(0.30166091 0 0.0010653854)
(0.30116845 0 0.0010633547)
(0.30067641 0 0.0010613262)
(0.30018481 0 0.0010592996)
(0.29969363 0 0.0010572752)
(0.29920288 0 0.0010552523)
(0.29871255 0 0.001053233)
(0.29822265 0 0.0010512117)
(0.29773319 0 0.0010492028)
(0.29724413 0 0.001047169)
(0.29675556 0 0.0010452078)
(0.29626724 0 0.0010430633)
(0.29577981 0 0.0010414079)
(0.29529161 0 0.0010384747)
(0.29480696 0 0.0010389093)
(0.29431454 0 0.0010305266)
(0.29384407 0 0.0010455716)
(0.2933172 0 0.0010015322)
(0.29293725 0 0.0011371586)
(0.29214335 0 0.00094178849)
)
;

boundaryField
{
    inlet
    {
        type            fixedProfile;
        profile         polynomial
        
2
(
((1.5 0 0) (0 0 0))
((-1.5 0 0) (2 0 0))
)
;
        direction       (0 0 1);
        origin          0;
        value           nonuniform List<vector> 5((1.485 0 0) (1.365 0 0) (1.125 0 0) (0.765 0 0) (0.285 0 0));
    }
    outlet
    {
        type            pressureInletOutletVelocity;
        value           nonuniform List<vector> 5((1.2575717 0 9.0855374e-05) (1.1610291 0 0.00027895517) (0.96794352 0 0.00048109792) (0.67831498 0 0.00069980676) (0.29214335 0 0.00094178849));
    }
    walls
    {
        type            codedFixedValue;
        value           nonuniform List<vector> 
50
(
(0.041086614 0 0.04758902)
(0.05699699 0 -0.026299178)
(0.051109825 0 0.012570739)
(0.053285557 0 -0.0028022552)
(0.052402604 0 0.002815961)
(0.052681164 0 0.0006592426)
(0.052520022 0 0.0014682863)
(0.052525588 0 0.0011586161)
(0.052467977 0 0.0012725572)
(0.052434323 0 0.0012262553)
(0.052391592 0 0.0012406016)
(0.052352309 0 0.0012319973)
(0.052311725 0 0.0012320837)
(0.05227164 0 0.001228883)
(0.052231372 0 0.00122693)
(0.052191179 0 0.0012245077)
(0.052150964 0 0.0012222662)
(0.052110763 0 0.0012199593)
(0.052070563 0 0.0012176803)
(0.052030369 0 0.0012153939)
(0.051990178 0 0.0012131134)
(0.051949992 0 0.0012108337)
(0.051909811 0 0.0012085568)
(0.051869634 0 0.001206282)
(0.051829461 0 0.0012040095)
(0.051789293 0 0.0012017392)
(0.05174913 0 0.0011994712)
(0.05170897 0 0.0011972054)
(0.051668816 0 0.0011949419)
(0.051628665 0 0.0011926806)
(0.051588519 0 0.0011904216)
(0.051548378 0 0.0011881648)
(0.051508241 0 0.0011859103)
(0.051468108 0 0.0011836579)
(0.05142798 0 0.001181408)
(0.051387856 0 0.0011791598)
(0.051347737 0 0.0011769154)
(0.051307621 0 0.0011746693)
(0.051267512 0 0.0011724356)
(0.051227403 0 0.0011701774)
(0.05118731 0 0.0011679919)
(0.051147192 0 0.0011656233)
(0.051107155 0 0.0011637442)
(0.051066919 0 0.0011605871)
(0.051027227 0 0.0011607992)
(0.050986117 0 0.0011521908)
(0.050948751 0 0.0011670193)
(0.050901508 0 0.00112274)
(0.050879776 0 0.0012581873)
(0.050785909 0 0.0010624672)
)
;
        name            BeaversJosephSaffmanExplicit;
        codeInclude     #{
           #include "fvCFD.H"
           #include "symmTransformField.H"

        #};
        code            #{
            scalar phiFac(0.02);
            const vectorField nHat(this->patch().nf());
            const vectorField pif(this->patchInternalField());  

            const vectorField slipVelocity
            (
                -phiFac*transform(I - sqr(nHat),this->snGrad())
            ); 


            operator==((pif&sqr(nHat)) + slipVelocity);
            
        #};
        codeOptions     #{
           -I$(LIB_SRC)/finiteVolume/lnInclude \
           -I$(LIB_SRC)/meshTools/lnInclude
        #};
    }
    centreline
    {
        type            symmetryPlane;
    }
    frontAndBack
    {
        type            empty;
    }
}


// ************************************************************************* //
