/*--------------------------------*- C++ -*----------------------------------*\
  =========                 |
  \\      /  F ield         | OpenFOAM: The Open Source CFD Toolbox
   \\    /   O peration     | Website:  https://openfoam.org
    \\  /    A nd           | Version:  6
     \\/     M anipulation  |
\*---------------------------------------------------------------------------*/
FoamFile
{
    version     2.0;
    format      ascii;
    class       volScalarField;
    location    "10000";
    object      p;
}
// * * * * * * * * * * * * * * * * * * * * * * * * * * * * * * * * * * * * * //

dimensions      [0 2 -2 0 0 0 0];

internalField   nonuniform List<scalar> 
4000
(
18593423
18419370
18340337
18236438
18151237
18056453
17967321
17874451
17783742
17691568
17600260
17508367
17416818
17325029
17233370
17141608
17049892
16958126
16866372
16774590
16682806
16591003
16499191
16407365
16315528
16223677
16131815
16039940
15948053
15856153
15764241
15672316
15580379
15488430
15396468
15304493
15212506
15120507
15028495
14936471
14844434
14752385
14660324
14568249
14476163
14384063
14291952
14199827
14107690
14015541
13923379
13831204
13739017
13646818
13554605
13462381
13370143
13277893
13185630
13093355
13001067
12908767
12816453
12724128
12631789
12539438
12447074
12354698
12262309
12169907
12077492
11985065
11892625
11800172
11707707
11615229
11522738
11430235
11337718
11245189
11152647
11060093
10967525
10874945
10782352
10689746
10597128
10504496
10411852
10319195
10226525
10133842
10041147
9948438.4
9855717.1
9762982.9
9670235.9
9577475.9
9484703.1
9391917.4
9299118.8
9206307.2
9113482.8
9020645.4
8927795.1
8834931.8
8742055.6
8649166.4
8556264.3
8463349.2
8370421.1
8277480.1
8184526
8091559
7998578.9
7905585.8
7812579.7
7719560.6
7626528.4
7533483.2
7440425
7347353.7
7254269.3
7161171.9
7068061.3
6974937.7
6881801
6788651.2
6695488.3
6602312.3
6509123.1
6415920.9
6322705.4
6229476.9
6136235.2
6042980.3
5949712.2
5856431
5763136.6
5669829
5576508.3
5483174.3
5389827.1
5296466.7
5203093
5109706.2
5016306
4922892.7
4829466.1
4736026.2
4642573
4549106.6
4455626.9
4362133.9
4268627.6
4175108
4081575.1
3988028.8
3894469.2
3800896.3
3707310.1
3613710.5
3520097.5
3426471.1
3332831.4
3239178.3
3145511.9
3051832
2958138.7
2864432
2770711.9
2676978.3
2583231.3
2489470.9
2395697
2301909.7
2208108.9
2114294.6
2020466.9
1926625.6
1832771
1738902.7
1645021
1551125.6
1457217.1
1363294.3
1269359.2
1175408.6
1081447.5
987468.03
893482.46
799471.65
705465.54
611417.15
517400.15
423298.87
329295.36
235102.63
141179.65
46788.096
18592091
18419355
18340062
18236467
18151197
18056472
17967311
17874458
17783738
17691571
17600258
17508369
17416817
17325029
17233370
17141609
17049892
16958127
16866372
16774590
16682806
16591003
16499191
16407365
16315528
16223677
16131815
16039940
15948053
15856153
15764241
15672316
15580379
15488430
15396468
15304493
15212507
15120507
15028496
14936471
14844435
14752385
14660324
14568249
14476163
14384063
14291952
14199827
14107690
14015541
13923379
13831205
13739017
13646818
13554606
13462381
13370143
13277893
13185631
13093355
13001067
12908767
12816454
12724128
12631789
12539438
12447074
12354698
12262309
12169907
12077492
11985065
11892625
11800173
11707707
11615229
11522738
11430235
11337718
11245189
11152647
11060093
10967525
10874945
10782352
10689746
10597128
10504496
10411852
10319195
10226525
10133843
10041147
9948438.5
9855717.2
9762983.1
9670236
9577476.1
9484703.3
9391917.5
9299118.9
9206307.4
9113482.9
9020645.5
8927795.2
8834932
8742055.7
8649166.6
8556264.5
8463349.4
8370421.3
8277480.2
8184526.2
8091559.1
7998579
7905586
7812579.9
7719560.7
7626528.6
7533483.4
7440425.1
7347353.8
7254269.5
7161172
7068061.5
6974937.9
6881801.2
6788651.4
6695488.5
6602312.4
6509123.3
6415921
6322705.6
6229477
6136235.3
6042980.4
5949712.4
5856431.2
5763136.8
5669829.2
5576508.4
5483174.4
5389827.2
5296466.8
5203093.2
5109706.3
5016306.2
4922892.8
4829466.2
4736026.3
4642573.2
4549106.8
4455627
4362134
4268627.7
4175108.1
4081575.2
3988029
3894469.4
3800896.5
3707310.2
3613710.6
3520097.6
3426471.3
3332831.6
3239178.5
3145512
3051832.1
2958138.8
2864432.1
2770712
2676978.5
2583231.5
2489471.1
2395697.2
2301909.9
2208109.1
2114294.8
2020467.1
1926625.8
1832771.1
1738902.8
1645021.2
1551125.7
1457217.2
1363294.4
1269359.3
1175408.7
1081447.6
987468.19
893482.57
799471.85
705465.6
611417.41
517400.1
423299.31
329295
235103.55
141178.3
46790.26
18589984
18418964
18339745
18236454
18151170
18056482
17967309
17874463
17783737
17691572
17600258
17508369
17416817
17325030
17233370
17141609
17049892
16958127
16866372
16774591
16682806
16591003
16499191
16407365
16315528
16223678
16131815
16039940
15948053
15856153
15764241
15672316
15580379
15488430
15396468
15304494
15212507
15120508
15028496
14936472
14844435
14752386
14660324
14568250
14476163
14384064
14291952
14199828
14107691
14015541
13923379
13831205
13739018
13646818
13554606
13462381
13370143
13277893
13185631
13093355
13001068
12908767
12816454
12724128
12631790
12539438
12447075
12354698
12262309
12169907
12077493
11985065
11892626
11800173
11707707
11615229
11522739
11430235
11337719
11245190
11152648
11060093
10967526
10874945
10782352
10689747
10597128
10504497
10411852
10319195
10226526
10133843
10041147
9948438.8
9855717.5
9762983.3
9670236.3
9577476.3
9484703.5
9391917.8
9299119.2
9206307.6
9113483.2
9020645.8
8927795.5
8834932.2
8742056
8649166.8
8556264.7
8463349.6
8370421.5
8277480.5
8184526.4
8091559.3
7998579.3
7905586.2
7812580.1
7719561
7626528.8
7533483.6
7440425.4
7347354.1
7254269.7
7161172.3
7068061.7
6974938.1
6881801.4
6788651.6
6695488.7
6602312.7
6509123.5
6415921.2
6322705.8
6229477.3
6136235.5
6042980.7
5949712.6
5856431.4
5763137
5669829.4
5576508.6
5483174.7
5389827.5
5296467.1
5203093.4
5109706.5
5016306.4
4922893.1
4829466.5
4736026.6
4642573.4
4549107
4455627.3
4362134.3
4268628
4175108.4
4081575.4
3988029.2
3894469.6
3800896.7
3707310.4
3613710.8
3520097.9
3426471.5
3332831.8
3239178.7
3145512.2
3051832.4
2958139.1
2864432.4
2770712.3
2676978.7
2583231.7
2489471.3
2395697.4
2301910.1
2208109.3
2114295
2020467.3
1926626
1832771.4
1738903
1645021.4
1551126
1457217.5
1363294.7
1269359.5
1175409
1081447.8
987468.44
893482.8
799472.11
705465.81
611417.7
517400.26
423299.68
329295.02
235104.13
141177.7
46791.51
18586839
18418299
18339307
18236420
18151140
18056493
17967309
17874468
17783737
17691574
17600258
17508370
17416817
17325030
17233370
17141609
17049892
16958127
16866372
16774591
16682806
16591003
16499192
16407366
16315528
16223678
16131816
16039941
15948053
15856153
15764241
15672317
15580380
15488430
15396468
15304494
15212507
15120508
15028496
14936472
14844435
14752386
14660324
14568250
14476163
14384064
14291952
14199828
14107691
14015542
13923380
13831205
13739018
13646818
13554606
13462381
13370144
13277894
13185631
13093356
13001068
12908767
12816454
12724128
12631790
12539439
12447075
12354699
12262309
12169908
12077493
11985066
11892626
11800173
11707708
11615230
11522739
11430235
11337719
11245190
11152648
11060093
10967526
10874946
10782353
10689747
10597128
10504497
10411853
10319196
10226526
10133843
10041148
9948439.1
9855717.8
9762983.7
9670236.6
9577476.7
9484703.9
9391918.2
9299119.5
9206308
9113483.5
9020646.1
8927795.8
8834932.6
8742056.4
8649167.2
8556265.1
8463350
8370421.9
8277480.8
8184526.8
8091559.7
7998579.6
7905586.6
7812580.5
7719561.4
7626529.2
7533484
7440425.7
7347354.4
7254270.1
7161172.6
7068062.1
6974938.5
6881801.8
6788652
6695489.1
6602313
6509123.9
6415921.6
6322706.2
6229477.6
6136235.9
6042981
5949713
5856431.8
5763137.4
5669829.8
5576509
5483175
5389827.8
5296467.4
5203093.8
5109706.9
5016306.8
4922893.4
4829466.8
4736026.9
4642573.8
4549107.4
4455627.7
4362134.7
4268628.3
4175108.7
4081575.8
3988029.6
3894470
3800897.1
3707310.8
3613711.2
3520098.2
3426471.9
3332832.2
3239179.1
3145512.6
3051832.7
2958139.4
2864432.7
2770712.6
2676979.1
2583232.1
2489471.7
2395697.8
2301910.5
2208109.7
2114295.4
2020467.7
1926626.4
1832771.7
1738903.4
1645021.8
1551126.3
1457217.8
1363295
1269359.9
1175409.3
1081448.2
987468.81
893483.16
799472.49
705466.16
611418.11
517400.57
423300.14
329295.2
235104.76
141177.18
46792.85
18582588
18417424
18338725
18236377
18151100
18056509
17967309
17874475
17783738
17691577
17600258
17508371
17416818
17325031
17233371
17141610
17049893
16958128
16866373
16774591
16682807
16591004
16499192
16407366
16315529
16223678
16131816
16039941
15948054
15856154
15764242
15672317
15580380
15488431
15396469
15304495
15212508
15120508
15028497
14936472
14844436
14752386
14660325
14568251
14476164
14384065
14291953
14199828
14107692
14015542
13923380
13831206
13739019
13646819
13554607
13462382
13370144
13277894
13185632
13093356
13001068
12908768
12816455
12724129
12631790
12539439
12447076
12354699
12262310
12169908
12077494
11985066
11892626
11800174
11707708
11615230
11522739
11430236
11337719
11245190
11152649
11060094
10967526
10874946
10782353
10689748
10597129
10504498
10411853
10319196
10226526
10133844
10041148
9948439.6
9855718.3
9762984.2
9670237.1
9577477.2
9484704.4
9391918.6
9299120
9206308.5
9113484
9020646.6
8927796.3
8834933.1
8742056.8
8649167.7
8556265.6
8463350.5
8370422.4
8277481.3
8184527.3
8091560.2
7998580.1
7905587.1
7812581
7719561.8
7626529.7
7533484.5
7440426.2
7347354.9
7254270.6
7161173.1
7068062.6
6974939
6881802.3
6788652.5
6695489.6
6602313.5
6509124.4
6415922.1
6322706.7
6229478.1
6136236.4
6042981.5
5949713.5
5856432.3
5763137.9
5669830.3
5576509.5
5483175.5
5389828.3
5296467.9
5203094.3
5109707.4
5016307.3
4922893.9
4829467.3
4736027.4
4642574.3
4549107.9
4455628.1
4362135.1
4268628.8
4175109.2
4081576.3
3988030.1
3894470.5
3800897.6
3707311.3
3613711.7
3520098.7
3426472.4
3332832.7
3239179.6
3145513.1
3051833.2
2958139.9
2864433.2
2770713.1
2676979.6
2583232.6
2489472.2
2395698.3
2301911
2208110.2
2114295.9
2020468.2
1926626.9
1832772.2
1738903.9
1645022.3
1551126.8
1457218.3
1363295.5
1269360.4
1175409.8
1081448.7
987469.32
893483.64
799473.01
705466.62
611418.66
517400.97
423300.77
329295.42
235105.62
141176.47
46794.703
18577220
18416352
18338008
18236329
18151052
18056529
17967309
17874484
17783738
17691580
17600258
17508373
17416818
17325032
17233371
17141611
17049893
16958128
16866374
16774592
16682807
16591004
16499193
16407367
16315529
16223679
16131817
16039942
15948054
15856155
15764242
15672318
15580381
15488431
15396469
15304495
15212508
15120509
15028497
14936473
14844436
14752387
14660325
14568251
14476164
14384065
14291953
14199829
14107692
14015543
13923381
13831206
13739019
13646820
13554607
13462382
13370145
13277895
13185632
13093357
13001069
12908769
12816455
12724130
12631791
12539440
12447076
12354700
12262311
12169909
12077494
11985067
11892627
11800174
11707709
11615231
11522740
11430236
11337720
11245191
11152649
11060094
10967527
10874947
10782354
10689748
10597130
10504498
10411854
10319197
10226527
10133844
10041149
9948440.2
9855718.9
9762984.8
9670237.7
9577477.8
9484705
9391919.3
9299120.6
9206309.1
9113484.6
9020647.3
8927796.9
8834933.7
8742057.5
8649168.3
8556266.2
8463351.1
8370423
8277481.9
8184527.9
8091560.8
7998580.8
7905587.7
7812581.6
7719562.5
7626530.3
7533485.1
7440426.8
7347355.5
7254271.2
7161173.7
7068063.2
6974939.6
6881802.9
6788653.1
6695490.2
6602314.1
6509125
6415922.7
6322707.3
6229478.7
6136237
6042982.1
5949714.1
5856432.9
5763138.5
5669830.9
5576510.1
5483176.1
5389828.9
5296468.5
5203094.9
5109708
5016307.9
4922894.5
4829467.9
4736028
4642574.9
4549108.5
4455628.8
4362135.8
4268629.5
4175109.8
4081576.9
3988030.7
3894471.1
3800898.2
3707311.9
3613712.3
3520099.3
3426473
3332833.3
3239180.2
3145513.7
3051833.8
2958140.5
2864433.8
2770713.7
2676980.2
2583233.2
2489472.8
2395698.9
2301911.6
2208110.8
2114296.5
2020468.8
1926627.5
1832772.8
1738904.5
1645022.9
1551127.4
1457218.9
1363296.2
1269361
1175410.5
1081449.3
987469.94
893484.23
799473.65
705467.19
611419.34
517401.48
423301.56
329295.69
235106.72
141175.56
46797.07
18570712
18415087
18337170
18236277
18150998
18056554
17967309
17874494
17783738
17691583
17600258
17508374
17416818
17325033
17233372
17141612
17049894
16958129
16866374
16774593
16682808
16591005
16499194
16407367
16315530
16223680
16131817
16039942
15948055
15856155
15764243
15672319
15580382
15488432
15396470
15304496
15212509
15120510
15028498
14936474
14844437
14752388
14660326
14568252
14476165
14384066
14291954
14199830
14107693
14015544
13923382
13831207
13739020
13646820
13554608
13462383
13370146
13277896
13185633
13093358
13001070
12908769
12816456
12724130
12631792
12539441
12447077
12354700
12262311
12169909
12077495
11985068
11892628
11800175
11707710
11615232
11522741
11430237
11337721
11245192
11152650
11060095
10967528
10874948
10782355
10689749
10597130
10504499
10411855
10319198
10226528
10133845
10041149
9948441
9855719.7
9762985.5
9670238.5
9577478.5
9484705.7
9391920
9299121.4
9206309.8
9113485.4
9020648
8927797.7
8834934.4
8742058.2
8649169
8556266.9
8463351.8
8370423.7
8277482.7
8184528.6
8091561.6
7998581.5
7905588.4
7812582.3
7719563.2
7626531
7533485.8
7440427.6
7347356.3
7254271.9
7161174.5
7068063.9
6974940.3
6881803.6
6788653.8
6695490.9
6602314.9
6509125.7
6415923.4
6322708
6229479.5
6136237.8
6042982.9
5949714.8
5856433.6
5763139.2
5669831.6
5576510.9
5483176.9
5389829.7
5296469.3
5203095.6
5109708.8
5016308.6
4922895.3
4829468.7
4736028.8
4642575.6
4549109.2
4455629.5
4362136.5
4268630.2
4175110.6
4081577.7
3988031.4
3894471.8
3800898.9
3707312.7
3613713
3520100.1
3426473.7
3332834
3239180.9
3145514.5
3051834.6
2958141.3
2864434.6
2770714.5
2676980.9
2583233.9
2489473.5
2395699.6
2301912.3
2208111.5
2114297.2
2020469.5
1926628.2
1832773.6
1738905.3
1645023.6
1551128.2
1457219.7
1363296.9
1269361.8
1175411.2
1081450
987470.7
893484.95
799474.42
705467.87
611420.17
517402.08
423302.51
329296.03
235108.03
141174.49
46799.904
18563024
18413642
18336221
18236223
18150940
18056583
17967309
17874506
17783738
17691588
17600258
17508376
17416819
17325034
17233372
17141613
17049895
16958130
16866375
16774594
16682809
16591006
16499194
16407368
16315531
16223681
16131818
16039943
15948056
15856156
15764244
15672319
15580382
15488433
15396471
15304497
15212510
15120511
15028499
14936475
14844438
14752389
14660327
14568253
14476166
14384067
14291955
14199831
14107694
14015544
13923382
13831208
13739021
13646821
13554609
13462384
13370147
13277896
13185634
13093359
13001071
12908770
12816457
12724131
12631793
12539442
12447078
12354701
12262312
12169910
12077496
11985069
11892629
11800176
11707711
11615232
11522742
11430238
11337722
11245193
11152651
11060096
10967529
10874948
10782356
10689750
10597131
10504500
10411856
10319198
10226529
10133846
10041150
9948441.8
9855720.5
9762986.4
9670239.3
9577479.4
9484706.6
9391920.9
9299122.2
9206310.7
9113486.2
9020648.8
8927798.5
8834935.3
8742059.1
8649169.9
8556267.8
8463352.7
8370424.6
8277483.5
8184529.5
8091562.4
7998582.3
7905589.3
7812583.2
7719564.1
7626531.9
7533486.7
7440428.4
7347357.1
7254272.8
7161175.3
7068064.8
6974941.2
6881804.5
6788654.7
6695491.8
6602315.7
6509126.6
6415924.3
6322708.9
6229480.3
6136238.6
6042983.7
5949715.7
5856434.5
5763140.1
5669832.5
5576511.7
5483177.7
5389830.5
5296470.1
5203096.5
5109709.6
5016309.5
4922896.1
4829469.5
4736029.6
4642576.5
4549110.1
4455630.4
4362137.4
4268631.1
4175111.4
4081578.5
3988032.3
3894472.7
3800899.8
3707313.5
3613713.9
3520100.9
3426474.6
3332834.9
3239181.8
3145515.3
3051835.4
2958142.1
2864435.4
2770715.3
2676981.8
2583234.8
2489474.4
2395700.5
2301913.2
2208112.4
2114298.1
2020470.4
1926629.1
1832774.4
1738906.1
1645024.5
1551129
1457220.5
1363297.8
1269362.6
1175412.1
1081450.9
987471.57
893485.79
799475.32
705468.68
611421.12
517402.79
423303.62
329296.42
235109.55
141173.29
46803.192
18554110
18412032
18335178
18236171
18150879
18056617
17967310
17874520
17783738
17691592
17600258
17508378
17416819
17325035
17233373
17141614
17049896
16958131
16866376
16774595
16682810
16591007
16499195
16407369
16315532
16223682
16131819
16039944
15948057
15856157
15764245
15672320
15580383
15488434
15396472
15304498
15212511
15120512
15028500
14936476
14844439
14752390
14660328
14568254
14476167
14384068
14291956
14199832
14107695
14015545
13923383
13831209
13739022
13646822
13554610
13462385
13370148
13277897
13185635
13093360
13001072
12908771
12816458
12724132
12631794
12539442
12447079
12354702
12262313
12169911
12077497
11985069
11892630
11800177
11707712
11615233
11522743
11430239
11337723
11245194
11152652
11060097
10967530
10874949
10782356
10689751
10597132
10504501
10411856
10319199
10226530
10133847
10041151
9948442.8
9855721.5
9762987.3
9670240.3
9577480.4
9484707.6
9391921.8
9299123.2
9206311.7
9113487.2
9020649.8
8927799.5
8834936.2
8742060
8649170.9
8556268.7
8463353.6
8370425.6
8277484.5
8184530.4
8091563.4
7998583.3
7905590.3
7812584.2
7719565
7626532.9
7533487.7
7440429.4
7347358.1
7254273.7
7161176.3
7068065.8
6974942.2
6881805.5
6788655.7
6695492.7
6602316.7
6509127.6
6415925.3
6322709.9
6229481.3
6136239.6
6042984.7
5949716.7
5856435.5
5763141.1
5669833.5
5576512.7
5483178.7
5389831.5
5296471.1
5203097.5
5109710.6
5016310.5
4922897.1
4829470.5
4736030.6
4642577.5
4549111.1
4455631.3
4362138.3
4268632
4175112.4
4081579.5
3988033.3
3894473.7
3800900.8
3707314.5
3613714.9
3520101.9
3426475.6
3332835.9
3239182.8
3145516.3
3051836.4
2958143.1
2864436.4
2770716.3
2676982.8
2583235.8
2489475.4
2395701.5
2301914.2
2208113.4
2114299.1
2020471.4
1926630.1
1832775.4
1738907.1
1645025.5
1551130
1457221.5
1363298.7
1269363.6
1175413.1
1081451.8
987472.58
893486.75
799476.35
705469.59
611422.22
517403.6
423304.88
329296.88
235111.28
141171.97
46806.927
18543909
18410276
18334055
18236126
18150819
18056656
17967312
17874536
17783739
17691598
17600258
17508381
17416820
17325037
17233374
17141615
17049897
16958132
16866377
16774596
16682811
16591008
16499197
16407370
16315533
16223683
16131820
16039945
15948058
15856158
15764246
15672322
15580385
15488435
15396473
15304499
15212512
15120513
15028501
14936477
14844440
14752391
14660329
14568255
14476168
14384069
14291957
14199833
14107696
14015546
13923384
13831210
13739023
13646823
13554611
13462386
13370149
13277899
13185636
13093361
13001073
12908772
12816459
12724133
12631795
12539444
12447080
12354703
12262314
12169912
12077498
11985071
11892631
11800178
11707713
11615235
11522744
11430240
11337724
11245195
11152653
11060098
10967531
10874951
10782358
10689752
10597133
10504502
10411858
10319201
10226531
10133848
10041152
9948443.9
9855722.6
9762988.5
9670241.4
9577481.5
9484708.7
9391922.9
9299124.3
9206312.8
9113488.3
9020650.9
8927800.6
8834937.4
8742061.1
8649172
8556269.8
8463354.7
8370426.7
8277485.6
8184531.6
8091564.5
7998584.4
7905591.4
7812585.3
7719566.1
7626534
7533488.8
7440430.5
7347359.2
7254274.9
7161177.4
7068066.9
6974943.3
6881806.6
6788656.8
6695493.9
6602317.8
6509128.7
6415926.4
6322711
6229482.4
6136240.7
6042985.8
5949717.8
5856436.6
5763142.2
5669834.6
5576513.8
5483179.8
5389832.6
5296472.2
5203098.6
5109711.7
5016311.6
4922898.2
4829471.6
4736031.7
4642578.6
4549112.2
4455632.5
4362139.4
4268633.1
4175113.5
4081580.6
3988034.4
3894474.8
3800901.9
3707315.6
3613716
3520103
3426476.7
3332837
3239183.9
3145517.4
3051837.5
2958144.2
2864437.5
2770717.4
2676983.9
2583236.9
2489476.5
2395702.6
2301915.3
2208114.5
2114300.2
2020472.5
1926631.2
1832776.5
1738908.2
1645026.6
1551131.1
1457222.6
1363299.9
1269364.7
1175414.2
1081452.9
987473.71
893487.82
799477.51
705470.62
611423.45
517404.51
423306.29
329297.41
235113.21
141170.55
46811.105
18532354
18408397
18332873
18236090
18150760
18056701
17967315
17874553
17783739
17691604
17600258
17508383
17416820
17325039
17233375
17141616
17049898
16958134
16866378
16774597
16682812
16591009
16499198
16407372
16315534
16223684
16131822
16039947
15948059
15856159
15764247
15672323
15580386
15488436
15396474
15304500
15212513
15120514
15028502
14936478
14844441
14752392
14660330
14568256
14476169
14384070
14291958
14199834
14107697
14015548
13923386
13831211
13739024
13646824
13554612
13462387
13370150
13277900
13185637
13093362
13001074
12908773
12816460
12724134
12631796
12539445
12447081
12354705
12262315
12169914
12077499
11985072
11892632
11800179
11707714
11615236
11522745
11430241
11337725
11245196
11152654
11060099
10967532
10874952
10782359
10689753
10597134
10504503
10411859
10319202
10226532
10133849
10041154
9948445.1
9855723.8
9762989.7
9670242.6
9577482.7
9484709.9
9391924.2
9299125.5
9206314
9113489.5
9020652.2
8927801.8
8834938.6
8742062.4
8649173.2
8556271.1
8463356
8370427.9
8277486.8
8184532.8
8091565.7
7998585.7
7905592.6
7812586.5
7719567.4
7626535.2
7533490
7440431.8
7347360.5
7254276.1
7161178.6
7068068.1
6974944.5
6881807.8
6788658
6695495.1
6602319.1
6509129.9
6415927.6
6322712.2
6229483.6
6136241.9
6042987.1
5949719
5856437.8
5763143.4
5669835.8
5576515
5483181.1
5389833.9
5296473.4
5203099.8
5109712.9
5016312.8
4922899.5
4829472.8
4736033
4642579.8
4549113.4
4455633.7
4362140.7
4268634.4
4175114.8
4081581.8
3988035.6
3894476
3800903.1
3707316.8
3613717.2
3520104.3
3426477.9
3332838.2
3239185.1
3145518.6
3051838.8
2958145.5
2864438.8
2770718.7
2676985.1
2583238.1
2489477.7
2395703.8
2301916.5
2208115.7
2114301.4
2020473.7
1926632.4
1832777.7
1738909.4
1645027.8
1551132.4
1457223.9
1363301.1
1269365.9
1175415.4
1081454.2
987474.96
893489.02
799478.8
705471.77
611424.82
517405.53
423307.86
329298.01
235115.35
141169.05
46815.718
18519362
18406421
18331654
18236069
18150707
18056752
17967318
17874572
17783739
17691610
17600258
17508386
17416821
17325041
17233376
17141618
17049899
16958135
16866379
16774599
16682813
16591011
16499199
16407373
16315536
16223685
16131823
16039948
15948061
15856161
15764249
15672324
15580387
15488438
15396476
15304501
15212515
15120515
15028504
14936479
14844443
14752393
14660332
14568257
14476171
14384071
14291960
14199835
14107698
14015549
13923387
13831213
13739025
13646826
13554613
13462389
13370151
13277901
13185638
13093363
13001075
12908775
12816462
12724136
12631797
12539446
12447082
12354706
12262317
12169915
12077500
11985073
11892633
11800181
11707715
11615237
11522746
11430243
11337726
11245197
11152655
11060101
10967533
10874953
10782360
10689754
10597136
10504504
10411860
10319203
10226533
10133851
10041155
9948446.5
9855725.2
9762991
9670244
9577484.1
9484711.2
9391925.5
9299126.9
9206315.4
9113490.9
9020653.5
8927803.2
8834939.9
8742063.7
8649174.6
8556272.4
8463357.3
8370429.2
8277488.2
8184534.1
8091567.1
7998587
7905593.9
7812587.8
7719568.7
7626536.6
7533491.4
7440433.1
7347361.8
7254277.4
7161180
7068069.5
6974945.9
6881809.2
6788659.3
6695496.4
6602320.4
6509131.3
6415929
6322713.6
6229485
6136243.3
6042988.4
5949720.4
5856439.2
5763144.8
5669837.2
5576516.4
5483182.4
5389835.2
5296474.8
5203101.2
5109714.3
5016314.2
4922900.8
4829474.2
4736034.3
4642581.2
4549114.7
4455635
4362142
4268635.7
4175116.1
4081583.2
3988036.9
3894477.4
3800904.5
3707318.2
3613718.6
3520105.6
3426479.3
3332839.6
3239186.5
3145520
3051840.1
2958146.8
2864440.1
2770720
2676986.5
2583239.5
2489479.1
2395705.2
2301917.9
2208117.1
2114302.8
2020475.1
1926633.8
1832779.1
1738910.8
1645029.2
1551133.7
1457225.2
1363302.5
1269367.3
1175416.8
1081455.5
987476.34
893490.34
799480.21
705473.03
611426.32
517406.65
423309.59
329298.69
235117.68
141167.48
46820.758
18504833
18404380
18330425
18236068
18150661
18056809
17967323
17874592
17783740
17691617
17600258
17508389
17416822
17325043
17233377
17141620
17049900
16958137
16866381
16774600
16682815
16591012
16499201
16407374
16315537
16223687
16131824
16039949
15948062
15856162
15764250
15672326
15580389
15488439
15396477
15304503
15212516
15120517
15028505
14936481
14844444
14752395
14660333
14568259
14476172
14384073
14291961
14199837
14107700
14015550
13923389
13831214
13739027
13646827
13554615
13462390
13370153
13277903
13185640
13093365
13001077
12908776
12816463
12724137
12631799
12539448
12447084
12354707
12262318
12169916
12077502
11985075
11892635
11800182
11707717
11615239
11522748
11430244
11337728
11245199
11152657
11060102
10967535
10874955
10782362
10689756
10597137
10504506
10411862
10319205
10226535
10133852
10041156
9948448
9855726.7
9762992.5
9670245.5
9577485.5
9484712.7
9391927
9299128.4
9206316.8
9113492.4
9020655
8927804.7
8834941.4
8742065.2
8649176
8556273.9
8463358.8
8370430.7
8277489.7
8184535.6
8091568.5
7998588.5
7905595.4
7812589.3
7719570.2
7626538
7533492.8
7440434.6
7347363.3
7254278.9
7161181.5
7068070.9
6974947.3
6881810.6
6788660.8
6695497.9
6602321.9
6509132.7
6415930.5
6322715
6229486.5
6136244.8
6042989.9
5949721.8
5856440.6
5763146.2
5669838.6
5576517.9
5483183.9
5389836.7
5296476.3
5203102.6
5109715.8
5016315.7
4922902.3
4829475.7
4736035.8
4642582.6
4549116.2
4455636.5
4362143.5
4268637.2
4175117.6
4081584.7
3988038.4
3894478.8
3800905.9
3707319.7
3613720.1
3520107.1
3426480.8
3332841
3239187.9
3145521.5
3051841.6
2958148.3
2864441.6
2770721.5
2676987.9
2583241
2489480.5
2395706.7
2301919.3
2208118.5
2114304.3
2020476.5
1926635.3
1832780.6
1738912.3
1645030.6
1551135.2
1457226.7
1363303.9
1269368.7
1175418.3
1081457
987477.84
893491.77
799481.76
705474.41
611427.96
517407.87
423311.47
329299.45
235120.21
141165.89
46826.217
18488651
18402313
18329214
18236092
18150626
18056873
17967329
17874614
17783740
17691624
17600259
17508393
17416822
17325045
17233378
17141621
17049902
16958138
16866382
16774602
16682816
16591014
16499202
16407376
16315539
16223688
16131826
16039951
15948064
15856164
15764252
15672327
15580390
15488441
15396479
15304504
15212518
15120518
15028507
14936482
14844446
14752396
14660335
14568260
14476174
14384074
14291963
14199838
14107701
14015552
13923390
13831216
13739028
13646829
13554617
13462392
13370154
13277904
13185642
13093366
13001078
12908778
12816465
12724139
12631800
12539449
12447085
12354709
12262320
12169918
12077503
11985076
11892636
11800184
11707718
11615240
11522749
11430246
11337729
11245200
11152658
11060104
10967536
10874956
10782363
10689757
10597139
10504507
10411863
10319206
10226536
10133854
10041158
9948449.6
9855728.3
9762994.1
9670247.1
9577487.1
9484714.3
9391928.6
9299130
9206318.4
9113494
9020656.6
8927806.3
8834943
8742066.8
8649177.6
8556275.5
8463360.4
8370432.3
8277491.3
8184537.2
8091570.1
7998590.1
7905597
7812590.9
7719571.8
7626539.6
7533494.4
7440436.2
7347364.9
7254280.5
7161183.1
7068072.5
6974948.9
6881812.2
6788662.4
6695499.5
6602323.5
6509134.3
6415932
6322716.6
6229488.1
6136246.4
6042991.5
5949723.4
5856442.2
5763147.8
5669840.2
5576519.5
5483185.5
5389838.3
5296477.9
5203104.2
5109717.4
5016317.2
4922903.9
4829477.3
4736037.4
4642584.2
4549117.8
4455638.1
4362145.1
4268638.8
4175119.2
4081586.3
3988040
3894480.4
3800907.5
3707321.3
3613721.7
3520108.7
3426482.4
3332842.6
3239189.5
3145523.1
3051843.2
2958149.9
2864443.2
2770723.1
2676989.5
2583242.6
2489482.1
2395708.3
2301920.9
2208120.1
2114305.9
2020478.1
1926636.9
1832782.2
1738913.9
1645032.2
1551136.8
1457228.3
1363305.5
1269370.3
1175419.9
1081458.5
987479.47
893493.33
799483.43
705475.9
611429.73
517409.2
423313.5
329300.28
235122.93
141164.29
46832.085
18470696
18400263
18328055
18236147
18150604
18056943
17967336
17874637
17783740
17691632
17600259
17508396
17416823
17325047
17233380
17141623
17049903
16958140
16866384
16774603
16682818
16591016
16499204
16407378
16315540
16223690
16131828
16039953
15948065
15856166
15764253
15672329
15580392
15488442
15396481
15304506
15212519
15120520
15028508
14936484
14844447
14752398
14660336
14568262
14476175
14384076
14291964
14199840
14107703
14015554
13923392
13831217
13739030
13646831
13554618
13462393
13370156
13277906
13185643
13093368
13001080
12908780
12816466
12724141
12631802
12539451
12447087
12354711
12262322
12169920
12077505
11985078
11892638
11800185
11707720
11615242
11522751
11430247
11337731
11245202
11152660
11060106
10967538
10874958
10782365
10689759
10597141
10504509
10411865
10319208
10226538
10133855
10041160
9948451.3
9855730
9762995.8
9670248.8
9577488.8
9484716
9391930.3
9299131.7
9206320.1
9113495.7
9020658.3
8927808
8834944.7
8742068.5
8649179.3
8556277.2
8463362.1
8370434
8277493
8184538.9
8091571.9
7998591.8
7905598.7
7812592.6
7719573.5
7626541.4
7533496.2
7440437.9
7347366.6
7254282.2
7161184.8
7068074.3
6974950.6
6881813.9
6788664.1
6695501.2
6602325.2
6509136
6415933.8
6322718.4
6229489.8
6136248.1
6042993.2
5949725.2
5856443.9
5763149.6
5669842
5576521.2
5483187.2
5389840
5296479.6
5203106
5109719.1
5016319
4922905.6
4829479
4736039.1
4642586
4549119.5
4455639.8
4362146.8
4268640.5
4175120.9
4081588
3988041.7
3894482.2
3800909.3
3707323
3613723.4
3520110.4
3426484.1
3332844.4
3239191.3
3145524.8
3051844.9
2958151.6
2864444.9
2770724.8
2676991.3
2583244.3
2489483.9
2395710
2301922.7
2208121.9
2114307.6
2020479.9
1926638.6
1832783.9
1738915.6
1645034
1551138.5
1457230
1363307.3
1269372
1175421.6
1081460.2
987481.23
893495.01
799485.23
705477.51
611431.64
517410.64
423315.68
329301.21
235125.84
141162.72
46838.349
18450861
18398282
18326986
18236236
18150597
18057020
17967344
17874661
17783741
17691640
17600259
17508400
17416824
17325050
17233381
17141626
17049905
16958142
16866386
16774605
16682820
16591017
16499206
16407380
16315542
16223692
16131829
16039954
15948067
15856167
15764255
15672331
15580394
15488444
15396482
15304508
15212521
15120522
15028510
14936486
14844449
14752400
14660338
14568264
14476177
14384078
14291966
14199842
14107705
14015556
13923394
13831219
13739032
13646832
13554620
13462395
13370158
13277908
13185645
13093370
13001082
12908781
12816468
12724142
12631804
12539453
12447089
12354713
12262323
12169922
12077507
11985080
11892640
11800187
11707722
11615244
11522753
11430249
11337733
11245204
11152662
11060107
10967540
10874960
10782367
10689761
10597142
10504511
10411867
10319210
10226540
10133857
10041162
9948453.1
9855731.8
9762997.7
9670250.6
9577490.7
9484717.9
9391932.1
9299133.5
9206322
9113497.5
9020660.1
8927809.8
8834946.6
8742070.3
8649181.2