/*--------------------------------*- C++ -*----------------------------------*\
  =========                 |
  \\      /  F ield         | OpenFOAM: The Open Source CFD Toolbox
   \\    /   O peration     | Website:  https://openfoam.org
    \\  /    A nd           | Version:  6
     \\/     M anipulation  |
\*---------------------------------------------------------------------------*/
FoamFile
{
    version     2.0;
    format      ascii;
    class       volVectorField;
    location    "10";
    object      grad(p);
}
// * * * * * * * * * * * * * * * * * * * * * * * * * * * * * * * * * * * * * //

dimensions      [0 1 -2 0 0 0 0];

internalField   nonuniform List<vector> 
10000
(
(-242242.26 5.0234538e-13 -25985.65)
(-451801.44 -5.0110916e-13 -17981.349)
(-387996.49 0 -19392.424)
(-339646.21 4.9910352e-13 -18503.238)
(-308091.04 0 -15948.588)
(-281325.88 0 -13383.681)
(-258700.72 0 -11033.586)
(-240415.58 4.9622705e-13 -8923.3463)
(-225965.46 0 -7088.0124)
(-214715.36 0 -5542.6328)
(-206080.28 0 -4272.2429)
(-199545.21 4.9405286e-13 -3241.8641)
(-194680.16 4.9355863e-13 -2431.5197)
(-191125.11 0 -1791.2091)
(-188565.08 0 -1295.9396)
(-186775.06 0 -920.71355)
(-185560.04 0 -630.52018)
(-184765.03 4.9119481e-13 -420.36782)
(-184290.02 4.9073109e-13 -265.24535)
(-184040.01 0 -150.14639)
(-183945 0 -65.066693)
(-183955 0 -10.010762)
(-184040 4.8887977e-13 25.028157)
(-184165 0 50.058819)
(-184315 0 60.07359)
(-184480 0 70.089364)
(-184640 0 70.092873)
(-184800 0 70.096383)
(-184950 0 70.099892)
(-185085 4.8562653e-13 65.096017)
(-185205 0 60.09164)
(-185315 0 50.078874)
(-185415 0 45.073244)
(-185505 0 40.067112)
(-185580 4.8329065e-13 40.069119)
(-185645 0 30.053345)
(-185705 0 30.05485)
(-185750 0 25.046963)
(-185795 0 20.038574)
(-185835 4.8094878e-13 20.039578)
(-185865 0 15.030437)
(-185890 0 15.03119)
(-185915 0 10.021295)
(-185940 0 10.021797)
(-185960 0 10.0223)
(-185975 0 10.022802)
(-185985 0 10.023304)
(-186000 0 5.0119033)
(-186010 0 10.024309)
(-186020 0 5.0124057)
(-186035 0 5.012657)
(-186040 4.7531597e-13 5.0129082)
(-186045 0 5.0131595)
(-186055 0 5.0134109)
(-186065 0 0)
(-186070 0 5.0139136)
(-186075 4.7296569e-13 0)
(-186085 0 0)
(-186090 0 5.0146679)
(-186095 0 0)
(-186105 0 0)
(-186110 4.7061378e-13 5.0154224)
(-186115 0 5.015674)
(-186120 0 5.0159256)
(-186125 0 5.0161772)
(-186130 0 5.0164288)
(-186135 0 0)
(-186145 0 0)
(-186150 4.6731846e-13 5.0171839)
(-186155 0 0)
(-186160 0 5.0176874)
(-186165 0 0)
(-186175 0 0)
(-186180 4.6496277e-13 5.0184428)
(-186185 0 5.0186946)
(-186190 0 5.0189465)
(-186195 0 5.0191984)
(-186200 0 5.0194504)
(-186205 4.6260553e-13 5.0197023)
(-186210 0 5.0199543)
(-186215 0 0)
(-186225 0 0)
(-186230 0 5.0207104)
(-186235 4.6024673e-13 5.0209625)
(-186240 0 5.0212146)
(-186245 0 0)
(-186255 0 5.0217189)
(-186260 0 5.0219711)
(-186260 0 5.0222233)
(-186265 0 0)
(-186275 4.5694177e-13 0)
(-186285 0 0)
(-186285 0 5.0232324)
(-186290 0 0)
(-186300 0 5.0237372)
(-186305 4.5457921e-13 5.0239895)
(-186310 0 5.0242419)
(-186310 0 5.0244944)
(-186320 0 0)
(-186330 0 5.0249994)
(-186330 4.5221508e-13 5.0252519)
(-186335 0 0)
(-186345 0 0)
(-186350 0 5.0260096)
(-186355 0 5.0262622)
(-186360 0 5.0265149)
(-186365 0 5.0267675)
(-186370 0 5.0270202)
(-186375 0 0)
(-186385 0 0)
(-186390 0 5.0277785)
(-186395 0 0)
(-186400 4.4653478e-13 5.0282841)
(-186405 0 0)
(-186415 0 0)
(-186420 0 5.0290427)
(-186420 0 5.0292957)
(-186430 4.4416531e-13 0)
(-186435 0 5.0298016)
(-186440 0 0)
(-186450 0 5.0303076)
(-186450 0 5.0305607)
(-186455 4.4179428e-13 5.0308137)
(-186465 0 5.0310668)
(-186470 0 5.0313199)
(-186475 0 5.0315731)
(-186480 0 5.0318263)
(-186485 0 5.0320795)
(-186490 0 5.0323327)
(-186495 4.3847218e-13 0)
(-186505 0 0)
(-186510 0 5.0330926)
(-186515 0 0)
(-186520 0 5.0335993)
(-186525 4.3609736e-13 0)
(-186535 0 0)
(-186540 0 5.0343595)
(-186545 0 5.0346129)
(-186550 0 5.0348665)
(-186555 4.3372096e-13 5.03512)
(-186560 0 5.0353735)
(-186565 0 5.035627)
(-186570 0 5.0358807)
(-186575 0 0)
(-186585 0 0)
(-186590 0 0)
(-186595 0 0)
(-186605 0 0)
(-186610 0 5.0374027)
(-186610 0 5.0376565)
(-186615 0 5.0379103)
(-186625 4.2801116e-13 0)
(-186630 0 5.0384179)
(-186635 0 5.0386718)
(-186640 0 5.0389257)
(-186645 0 0)
(-186655 4.2562939e-13 0)
(-186660 0 5.0396875)
(-186665 0 5.0399415)
(-186670 0 5.0401956)
(-186675 0 5.0404496)
(-186680 0 5.0407037)
(-186685 0 5.0409578)
(-186695 0 5.0412119)
(-186700 0 5.0414661)
(-186700 0 5.0417202)
(-186710 0 0)
(-186720 0 5.0422287)
(-186720 0 5.0424829)
(-186725 0 5.0427372)
(-186735 0 5.0429915)
(-186740 0 5.0432458)
(-186745 0 5.0435002)
(-186750 0 5.0437545)
(-186755 0 5.044009)
(-186760 0 5.0442634)
(-186765 -4.1608646e-13 0)
(-186775 0 0)
(-186780 0 5.0450269)
(-186785 0 5.0452814)
(-186790 0 5.045536)
(-186795 -4.1369676e-13 5.0457906)
(-186800 0 5.0460452)
(-186805 0 0)
(-186815 0 0)
(-186820 0 5.0468091)
(-186825 -4.1130547e-13 0)
(-186830 0 5.0473186)
(-186835 0 0)
(-186845 0 0)
(-186850 4.0939129e-13 5.048083)
(-186855 0 5.0483378)
(-186860 0 5.0485927)
(-186865 0 5.0488476)
(-186870 0 5.0491025)
(-186875 4.0699714e-13 5.0493575)
(-186880 0 5.0496124)
(-186885 0 0)
(-186895 -4.0555988e-13 0)
(-186900 0 0)
(-186905 4.0460139e-13 0)
(-186915 -4.0412204e-13 0)
(-186920 0 5.0511428)
(-186920 -4.0316316e-13 5.0513979)
(-186925 0 0)
(-186935 0 0)
(-186940 -4.0172438e-13 5.0521636)
(-186945 0 0)
(-186955 -4.0076486e-13 0)
(-186960 0 5.0529294)
(-186960 0 5.0531848)
(-186970 -3.9932511e-13 0)
(-186975 3.9884506e-13 5.0536955)
(-186980 0 0)
(-186990 -3.9788478e-13 5.0542064)
(-186990 0 5.0544618)
(-186995 0 5.0547173)
(-187005 3.9644389e-13 5.0549728)
(-187010 0 5.0552284)
(-187015 -3.9548297e-13 5.0554839)
(-187020 0 5.0557395)
(-187025 0 0)
(-187035 3.9404111e-13 5.0562508)
(-187040 -3.9356035e-13 5.0565065)
(-187040 3.9307954e-13 5.0567621)
(-187050 0 0)
(-187060 -3.9211772e-13 5.0572736)
(-187060 0 5.0575294)
(-187065 -3.9115565e-13 5.0577852)
(-187075 0 5.058041)
(-187080 0 5.0582969)
(-187080 -3.8971205e-13 5.0585527)
(-187090 0 0)
(-187100 -3.8874934e-13 5.0590646)
(-187100 0 5.0593205)
(-187105 0 0)
(-187115 -3.8730478e-13 0)
(-187120 0 5.0600886)
(-187125 0 5.0603446)
(-187130 0 5.0606007)
(-187135 0 0)
(-187145 0 5.0611129)
(-187150 0 5.0613691)
(-187150 0 5.0616253)
(-187160 0 0)
(-187170 0 5.0621377)
(-187170 0 5.062394)
(-187175 0 5.0626503)
(-187185 -3.8152078e-13 5.0629066)
(-187190 3.8103835e-13 5.063163)
(-187190 0 5.0634193)
(-187200 0 0)
(-187210 0 5.0639321)
(-187210 -3.7910803e-13 5.0641886)
(-187215 -3.7862531e-13 5.0644451)
(-187225 0 0)
(-187230 0 5.0649581)
(-187235 0 5.0652146)
(-187240 -3.7669369e-13 5.0654712)
(-187245 -3.7621062e-13 0)
(-187255 0 5.0659845)
(-187260 0 5.0662411)
(-187260 0 5.0664978)
(-187270 0 0)
(-187280 -3.7379434e-13 5.0670112)
(-187280 0 5.067268)
(-187285 0 5.0675248)
(-187295 0 5.0677816)
(-187300 0 5.0680384)
(-187300 -3.7137645e-13 5.0682953)
(-187310 0 0)
(-187320 0 5.0688091)
(-187320 0 5.069066)
(-187325 0 0)
(-187335 3.6895694e-13 0)
(-187340 0 5.069837)
(-187345 -3.6798868e-13 0)
(-187350 0 5.0703511)
(-187355 0 0)
(-187365 -3.6653581e-13 0)
(-187370 0 5.0711225)
(-187375 -3.6556691e-13 5.0713797)
(-187380 0 5.0716368)
(-187385 0 5.0718941)
(-187390 -3.6411307e-13 5.0721514)
(-187395 0 0)
(-187405 -3.6314352e-13 0)
(-187410 0 5.0729233)
(-187415 0 0)
(-187420 -3.6168871e-13 5.073438)
(-187425 3.6120364e-13 0)
(-187435 0 0)
(-187440 0 5.0742103)
(-187445 0 5.0744678)
(-187450 -3.5926271e-13 5.0747253)
(-187455 3.5877733e-13 5.0749829)
(-187460 0 5.0752404)
(-187465 0 0)
(-187475 -3.5732076e-13 0)
(-187480 3.5683511e-13 5.0760133)
(-187485 3.563494e-13 5.076271)
(-187490 -3.5586361e-13 5.0765287)
(-187495 0 0)
(-187505 -3.5489186e-13 5.0770441)
(-187510 -3.5440587e-13 5.0773019)
(-187510 0 5.0775597)
(-187520 -3.5343373e-13 0)
(-187525 0 5.0780754)
(-187530 -3.5246132e-13 0)
(-187540 -3.5197502e-13 5.0785912)
(-187540 0 5.0788491)
(-187550 -3.5100222e-13 0)
(-187555 3.5051572e-13 5.0793651)
(-187560 0 0)
(-187570 -3.4954253e-13 5.0798811)
(-187570 0 5.0801392)
(-187575 0 0)
(-187585 3.4808226e-13 0)
(-187590 0 5.0809135)
(-187595 -3.4710842e-13 0)
(-187600 -3.4662141e-13 5.0814299)
(-187605 3.4613433e-13 0)
(-187615 -3.4564718e-13 0)
(-187620 -3.4515997e-13 5.0822047)
(-187625 3.4467268e-13 0)
(-187630 -3.4418534e-13 5.0827213)
(-187635 -3.4369793e-13 0)
(-187645 3.4321045e-13 0)
(-187650 -3.4272291e-13 5.0834964)
(-187650 3.4223531e-13 5.0837549)
(-187660 -3.4174764e-13 0)
(-187670 -3.412599e-13 5.0842718)
(-187670 3.407721e-13 5.0845303)
(-187675 -3.4028424e-13 5.0847888)
(-187685 0 5.0850474)
(-187690 3.393083e-13 5.085306)
(-187690 -3.3882025e-13 5.0855646)
(-187700 0 0)
(-187710 3.3784393e-13 5.0860819)
(-187710 0 5.0863406)
(-187715 -3.3686734e-13 0)
(-187725 3.3637896e-13 0)
(-187730 0 5.0871169)
(-187735 3.3540198e-13 0)
(-187745 0 0)
(-187750 -3.3442474e-13 5.0878933)
(-187750 3.3393602e-13 5.0881522)
(-187755 0 0)
(-187765 -3.329584e-13 0)
(-187775 3.3246948e-13 0)
(-187775 -3.319805e-13 5.089188)
(-187780 0 0)
(-187790 3.3100236e-13 5.0897061)
(-187795 -3.3051319e-13 5.0899651)
(-187800 3.3002394e-13 5.0902242)
(-187805 -3.2953464e-13 5.0904833)
(-187810 0 5.0907425)
(-187815 3.2855583e-13 0)
(-187825 -3.2806633e-13 0)
(-187830 -3.2757676e-13 5.0915201)
(-187835 3.2708712e-13 0)
(-187840 0 5.0920386)
(-187845 0 0)
(-187855 3.2561783e-13 0)
(-187860 -3.2512793e-13 5.0928166)
(-187865 -3.2463797e-13 5.093076)
(-187870 3.2414794e-13 5.0933354)
(-187875 0 0)
(-187885 3.2316769e-13 5.0938543)
(-187890 -3.2267745e-13 5.0941138)
(-187890 -3.2218716e-13 5.0943733)
(-187895 3.2169681e-13 0)
(-187905 0 0)
(-187915 0 0)
(-187920 3.2022534e-13 5.0954116)
(-187920 -3.1973472e-13 5.0956712)
(-187925 -3.1924404e-13 0)
(-187935 3.1875329e-13 0)
(-187945 0 0)
(-187950 3.1777158e-13 5.0967101)
(-187950 -3.1728062e-13 5.0969698)
(-187955 -3.1678962e-13 5.0972297)
(-187965 3.1629853e-13 0)
(-187970 0 5.0977493)
(-187975 -3.1531618e-13 5.0980092)
(-187980 3.148249e-13 5.0982691)
(-187985 -3.1433356e-13 0)
(-187995 0 0)
(-188000 3.1335067e-13 5.099049)
(-188005 -3.1285912e-13 0)
(-188015 0 0)
(-188015 3.1187583e-13 5.0998291)
(-188020 0 0)
(-188030 3.108923e-13 5.1003494)
(-188035 -3.1040041e-13 0)
(-188040 0 5.1008697)
(-188045 3.0941647e-13 0)
(-188055 0 0)
(-188060 -3.0843226e-13 5.1016504)
(-188060 3.0794006e-13 5.1019107)
(-188070 0 0)
(-188080 -3.0695545e-13 5.1024313)
(-188080 3.0646305e-13 5.1026917)
(-188085 -3.0597059e-13 5.1029521)
(-188095 3.0547806e-13 5.1032125)
(-188100 0 5.1034729)
(-188105 -3.0449279e-13 5.1037334)
(-188110 3.0400005e-13 5.1039939)
(-188115 -3.0350726e-13 5.1042544)
(-188125 -3.030144e-13 5.1045149)
(-188130 3.0252146e-13 5.1047755)
(-188130 -3.0202846e-13 5.1050361)
(-188140 -3.015354e-13 0)
(-188150 3.0104227e-13 5.1055574)
(-188150 -3.0054907e-13 5.1058181)
(-188155 -3.0005581e-13 0)
(-188165 2.9956248e-13 0)
(-188170 -2.9906909e-13 5.1066003)
(-188175 2.9857563e-13 0)
(-188185 -2.9808211e-13 5.1071219)
(-188190 -2.975885e-13 5.1073827)
(-188190 2.9709484e-13 5.1076436)
(-188195 -2.9660112e-13 0)
(-188205 -2.9610733e-13 0)
(-188215 2.9561347e-13 0)
(-188220 -2.9511954e-13 5.1086873)
(-188220 -2.9462554e-13 5.1089483)
(-188225 2.9413149e-13 0)
(-188235 -2.9363737e-13 0)
(-188240 2.9314318e-13 5.1097315)
(-188245 -2.9264892e-13 0)
(-188255 -2.9215459e-13 0)
(-188260 2.916602e-13 5.1105149)
(-188265 -2.9116575e-13 5.1107761)
(-188270 0 5.1110373)
(-188275 2.9017663e-13 5.1112985)
(-188280 -2.8968197e-13 5.1115598)
(-188285 0 0)
(-188295 2.8869246e-13 0)
(-188300 0 5.1123438)
(-188305 2.8770268e-13 0)
(-188315 -2.872077e-13 5.1128665)
(-188320 0 5.113128)
(-188320 2.862175e-13 5.1133894)
(-188325 0 0)
(-188335 -2.8522707e-13 0)
(-188340 2.8473175e-13 5.1141739)
(-188345 0 0)
(-188355 -2.837409e-13 0)
(-188360 2.8324538e-13 5.1149587)
(-188365 -2.8274978e-13 0)
(-188370 0 5.115482)
(-188375 2.817584e-13 0)
(-188385 -2.8126263e-13 5.1160054)
(-188390 2.8076676e-13 5.1162672)
(-188390 -2.8027084e-13 5.116529)
(-188400 0 0)
(-188410 2.7927879e-13 5.1170526)
(-188410 -2.7878266e-13 5.1173144)
(-188415 -2.7828648e-13 5.1175763)
(-188425 2.7779023e-13 5.1178382)
(-188430 0 5.1181002)
(-188435 0 5.1183621)
(-188440 2.7630105e-13 5.1186241)
(-188445 -2.7580452e-13 0)
(-188455 2.7530793e-13 0)
(-188460 0 5.1194102)
(-188465 0 5.1196723)
(-188470 2.7381776e-13 5.1199345)
(-188475 -2.733209e-13 0)
(-188485 -2.7282397e-13 0)
(-188490 2.7232698e-13 5.120721)
(-188495 0 5.1209832)
(-188499.5 0 5.1212455)
(-188504.5 2.708356e-13 3.0729047)
(-188512.5 -2.7033834e-13 3.0730621)
(-188518 -2.6984101e-13 3.0732195)
(-188524 2.6934362e-13 3.0733769)
(-188530 0 3.0735343)
(-188536 2.6834863e-13 3.0736918)
(-188542 -2.6785103e-13 3.0738492)
(-188548 -2.6735337e-13 3.0740067)
(-188553.5 2.6685564e-13 3.0741642)
(-188559.5 0 3.0743217)
(-188566 -2.6585998e-13 3.0744793)
(-188571.5 2.6536205e-13 3.5870763)
(-188577.5 -2.6486405e-13 3.0747944)
(-188583.5 0 3.5874439)
(-188589 2.6386785e-13 3.0751095)
(-188595 -2.6336965e-13 3.0752672)
(-188601.5 2.6287139e-13 3.0754248)
(-188607.5 -2.6237305e-13 3.5881795)
(-188613 0 3.5883635)
(-188619 2.6137618e-13 3.5885474)
(-188624.5 -2.6087765e-13 3.5887314)
(-188630.5 0 3.0762132)
(-188637 2.5988037e-13 3.0763709)
(-188643 0 3.0765287)
(-188648.5 -2.5888283e-13 3.5894675)
(-188654.5 2.5838396e-13 3.0768442)
(-188660.5 0 3.077002)
(-188666.5 -2.5738601e-13 3.0771598)
(-188672.5 2.5688694e-13 3.0773176)
(-188678 -2.563878e-13 3.0774754)
(-188684.5 2.5588859e-13 3.0776333)
(-188690.5 0 3.5907564)
(-188696 -2.5488997e-13 3.0779491)
(-188702 2.5439056e-13 3.078107)
(-188708 -2.5389108e-13 3.0782649)
(-188714 -2.5339154e-13 3.0784228)
(-188720 2.5289193e-13 3.0785808)
(-188726 -2.5239224e-13 3.0787388)
(-188732 -2.518925e-13 3.0788967)
(-188737.5 2.5139268e-13 3.5922305)
(-188743.5 -2.508928e-13 3.0792128)
(-188750 2.5039285e-13 3.0793708)
(-188755.5 -2.4989283e-13 3.5927836)
(-188761.5 -2.4939275e-13 3.0796869)
(-188767.5 2.488926e-13 3.079845)
(-188773.5 -2.4839238e-13 3.0800031)
(-188779.5 -2.4789209e-13 3.5935214)
(-188785 2.4739173e-13 3.0803193)
(-188791.5 -2.4689131e-13 3.0804775)
(-188797.5 -2.4639082e-13 3.5940749)
(-188803 2.4589026e-13 3.0807938)
(-188809 -2.4538964e-13 3.080952)
(-188815 -2.4488895e-13 3.0811102)
(-188821 2.4438819e-13 3.0812685)
(-188827 -2.4388736e-13 3.0814267)
(-188833 2.4338646e-13 3.081585)
(-188839 -2.428855e-13 3.0817432)
(-188845 -2.4238447e-13 3.0819015)
(-188851 2.4188337e-13 3.0820599)
(-188857 -2.413822e-13 3.0822182)
(-188862.5 0 3.5961059)
(-188868.5 2.4037967e-13 3.0825349)
(-188875 -2.398783e-13 3.0826933)
(-188880.5 0 3.0828516)
(-188886.5 2.3887536e-13 3.0830101)
(-188893 0 3.0831685)
(-188898.5 2.3787214e-13 3.5972147)
(-188904 -2.3737043e-13 3.0834854)
(-188910.5 0 3.0836439)
(-188916.5 2.3636681e-13 3.0838023)
(-188922.5 0 3.0839608)
(-188928.5 -2.3536292e-13 3.5981393)
(-188934 2.3486087e-13 3.0842779)
(-188940.5 0 3.0844364)
(-188946.5 -2.3385658e-13 3.5986942)
(-188952 2.3335432e-13 3.0847536)
(-188958 -2.3285201e-13 3.0849122)
(-188964 0 3.0850708)
(-188970 2.3184717e-13 3.0852295)
(-188976 -2.3134464e-13 3.0853881)
(-188982 2.3084205e-13 3.0855468)
(-188988 -2.3033939e-13 3.0857055)
(-188994 0 3.0858642)
(-189000 2.2933387e-13 3.0860229)
(-189006 -2.2883101e-13 3.0861816)
(-189012 -2.2832808e-13 3.0863404)
(-189018 2.2782508e-13 3.0864992)
(-189024 0 3.0866579)
(-189030 0 3.0868167)
(-189035.5 2.2631568e-13 3.6014715)
(-189041.5 -2.2581241e-13 3.0871344)
(-189048 2.2530907e-13 3.0872932)
(-189054 0 3.0874521)
(-189059.5 0 3.6022128)
(-189065.5 2.2379865e-13 3.0877699)
(-189072 -2.2329503e-13 3.0879288)
(-189077.5 -2.2279136e-13 3.602769)
(-189083.5 2.2228761e-13 3.0882466)
(-189089.5 0 3.0884056)
(-189095.5 0 3.0885646)
(-189102 2.2077596e-13 3.0887236)
(-189107.5 -2.2027194e-13 3.6036964)
(-189113.5 2.1976785e-13 3.0890416)
(-189119.5 0 3.6040675)
(-189125.5 0 3.0893597)
(-189131.5 2.1825518e-13 3.6044386)
(-189137 -2.1775081e-13 3.0896779)
(-189143.5 -2.1724639e-13 3.089837)
(-189149.5 2.1674189e-13 3.0899961)
(-189155.5 0 3.0901553)
(-189161.5 -2.1573269e-13 3.0903144)
(-189167.5 2.1522798e-13 3.0904736)
(-189173.5 -2.1472321e-13 3.6057383)
(-189179 0 3.090792)
(-189185.5 2.1371347e-13 3.0909512)
(-189191.5 -2.1320849e-13 3.6062956)
(-189197 2.1270345e-13 3.0912697)
(-189203.5 -2.1219833e-13 3.091429)
(-189209.5 0 3.606853)
(-189215 2.111879e-13 3.0917476)
(-189221.5 -2.1068259e-13 3.0919069)
(-189227.5 0 3.6074107)
(-189233 2.0967174e-13 3.0922256)
(-189239 0 3.092385)
(-189245.5 -2.0866063e-13 3.0925444)
(-189251.5 2.0815497e-13 3.0927038)
(-189257 0 3.0928632)
(-189263.5 2.0714344e-13 3.0930227)
(-189269.5 0 3.6087125)
(-189275 -2.0613164e-13 3.0933416)
(-189281 2.0562564e-13 3.0935011)
(-189287.5 0 3.0936606)
(-189293.5 -2.0461343e-13 3.6094568)
(-189299 2.0410722e-13 3.0939796)
(-189305 -2.0360094e-13 3.0941392)
(-189311.5 -2.030946e-13 3.0942988)
(-189317.5 2.0258818e-13 3.6102014)
(-189323 -2.020817e-13 3.0946179)
(-189329.5 -2.0157515e-13 3.0947776)
(-189335.5 2.0106853e-13 3.6107601)
(-189341 -2.0056184e-13 3.0950969)
(-189347 2.0005508e-13 3.0952565)
(-189353.5 -1.9954826e-13 3.0954162)
(-189359.5 -1.9904136e-13 3.0955759)
(-189365 1.985344e-13 3.0957356)
(-189371.5 -1.9802737e-13 3.0958954)
(-189377.5 -1.9752027e-13 3.6120643)
(-189383 1.970131e-13 3.0962149)
(-189389.5 -1.9650586e-13 3.0963747)
(-189395.5 -1.9599855e-13 3.0965345)
(-189401.5 1.9549117e-13 3.0966943)
(-189407.5 -1.9498373e-13 3.6129965)
(-189413 1.9447621e-13 3.097014)
(-189419.5 -1.9396863e-13 3.0971738)
(-189425.5 -1.9346098e-13 3.0973337)
(-189431.5 1.9295326e-13 3.0974936)
(-189437.5 -1.9244547e-13 3.6139291)
(-189443.5 -1.9193761e-13 3.0978135)
(-189449.5 1.9142969e-13 3.6143023)
(-189455.5 -1.9092169e-13 3.0981334)
(-189461.5 0 3.6146756)
(-189467.5 1.8990549e-13 3.0984534)
(-189473.5 -1.8939729e-13 3.0986134)
(-189479.5 0 3.0987734)
(-189486 1.8838068e-13 3.0989334)
(-189491.5 0 3.6156091)
(-189497.5 1.8736379e-13 3.0992536)
(-189504 0 3.0994137)
(-189509.5 0 3.6161694)
(-189515.5 0 3.099734)
(-189522 -1.8532918e-13 3.0998941)
(-189528 0 3.1000542)
(-189533.5 0 3.6169168)
(-189539.5 0 3.1003746)
(-189546 0 3.1005348)
(-189552 1.8278437e-13 3.1006951)
(-189558 0 3.1008553)
(-189564 0 3.1010156)
(-189570 0 3.1011759)
(-189576 0 3.1013362)
(-189582 1.8023784e-13 3.1014965)
(-189588 0 3.1016568)
(-189594 -1.7921874e-13 3.1018172)
(-189600.5 1.7870908e-13 3.1019775)
(-189606.5 0 3.6191609)
(-189612 0 3.1022983)
(-189618 1.7717971e-13 3.1024587)
(-189624.5 -1.7666978e-13 3.1026191)
(-189630.5 0 3.6199095)
(-189636 0 3.10294)
(-189642.5 0 3.1031005)
(-189648.5 1.7462936e-13 3.6204712)
(-189654.5 -1.7411909e-13 3.1034215)
(-189660.5 0 3.6208457)
(-189666.5 0 3.1037426)
(-189672.5 0 3.6212203)
(-189678.5 0 3.1040637)
(-189684.5 0 3.1042243)
(-189690.5 0 3.1043849)
(-189697 -1.7054521e-13 3.1045456)
(-189703 1.7003438e-13 3.1047062)
(-189708.5 0 3.6223447)
(-189714.5 0 3.1050276)
(-189721 0 3.1051883)
(-189727 -1.6799036e-13 3.105349)
(-189733 1.6747918e-13 3.1055097)
(-189739 0 3.1056704)
(-189745 0 3.1058312)
(-189751 1.6594523e-13 3.105992)
(-189757.5 -1.6543377e-13 3.1061528)
(-189763.5 0 3.6240325)
(-189769 1.6441065e-13 3.1064744)
(-189775 0 3.1066353)
(-189781.5 1.6338725e-13 3.1067961)
(-189787.5 -1.6287544e-13 3.106957)
(-189793.5 0 3.1071179)
(-189799.5 1.6185162e-13 3.6251586)
(-189805.5 0 3.1074397)
(-189811.5 0 3.6255341)
(-189817.5 0 3.1077616)
(-189824 0 3.1079226)
(-189829.5 -1.5929086e-13 3.6260975)
(-189835.5 0 3.1082446)
(-189842 0 3.1084057)
(-189848 0 3.1085667)
(-189854 1.57241e-13 3.1087278)
(-189860 -1.5672836e-13 3.1088888)
(-189866 0 3.1090499)
(-189872 0 3.109211)
(-189878.5 0 3.1093722)
(-189884.5 1.546771e-13 3.6277889)
(-189890 -1.5416411e-13 3.1096945)
(-189896.5 0 3.1098557)
(-189902.5 1.5313792e-13 3.1100169)
(-189908.5 0 3.1101781)
(-189914.5 0 3.1103393)
(-189920.5 1.5159811e-13 3.1105005)
(-189927 0 3.1106618)
(-189933 1.5057123e-13 3.1108231)
(-189939 0 3.1109844)
(-189945 0 3.62967)
(-189951 1.4903037e-13 3.6298582)
(-189957 0 3.6300464)
(-189963 -1.4800279e-13 3.6302347)
(-189969 0 3.1117911)
(-189975 0 3.1119525)
(-189981.5 0 3.1121139)
(-189987.5 0 3.1122753)
(-189993.5 -1.454326e-13 3.1124368)
(-189999.5 0 3.6313646)
(-190005.5 1.4440403e-13 3.1127597)
(-190012 0 3.1129212)
(-190018 0 3.1130827)
(-190023.5 -1.4286066e-13 3.6321183)
(-190029.5 0 3.1134058)
(-190036 1.4183139e-13 3.1135674)
(-190042.5 0 3.1137289)
(-190048.5 0 3.6328723)
(-190054 1.4028696e-13 3.1140522)
(-190060 0 3.1142138)
(-190066.5 -1.39257e-13 3.1143754)
(-190072.5 1.3874191e-13 3.1145371)
(-190078.5 0 3.1146988)
(-190085 1.3771152e-13 3.1148605)
(-190090.5 0 3.6341926)
(-190096.5 -1.3668085e-13 3.1151839)
(-190103 1.3616541e-13 3.1153457)
(-190109 0 3.1155074)
(-190115 0 3.1156692)
(-190121.5 0 3.115831)
(-190127.5 -1.3410294e-13 3.635325)
(-190133 0 3.1161547)
(-190139.5 0 3.1163165)
(-190145.5 0 3.6358914)
(-190151.5 0 3.1166403)
(-190158 1.3152328e-13 3.1168022)
(-190163.5 0 3.6364581)
(-190169.5 0 3.117126)
(-190176 0 3.117288)
(-190182 0 3.1174499)
(-190188 1.2894186e-13 3.1176119)
(-190194.5 0 3.1177739)
(-190200.5 -1.279088e-13 3.6375919)
(-190206 1.2739217e-13 3.118098)
(-190212.5 0 3.11826)
(-190219 0 3.1184221)
(-190224.5 1.2584183e-13 3.6383482)
(-190230.5 -1.2532492e-13 3.1187463)
(-190237 1.2480793e-13 3.1189084)
(-190243 0 3.1190705)
(-190249 0 3.1192327)
(-190255 1.2325654e-13 3.1193948)
(-190261.5 -1.2273927e-13 3.119557)
(-190267.5 0 3.6396724)
(-190273.5 0 3.1198814)
(-190279.5 0 3.640051)
(-190285.5 0 3.1202059)
(-190292 0 3.1203682)
(-190298 0 3.6406189)
(-190304 -1.1911639e-13 3.6408083)
(-190310 1.1859856e-13 3.6409976)
(-190316 0 3.1210174)
(-190322 0 3.1211798)
(-190328.5 0 3.1213422)
(-190334.5 -1.1652651e-13 3.6417553)
(-190340.5 1.1600832e-13 3.121667)
(-190347 0 3.1218294)
(-190352.5 0 3.6423238)
(-190358.5 1.1445333e-13 3.1221543)
(-190365.5 -1.1393485e-13 3.1223168)
(-190371.5 0 3.6428925)
(-190377 1.128977e-13 3.1226418)
(-190383 0 3.1228043)
(-190389.5 1.1186026e-13 3.1229668)
(-190396 -1.1134143e-13 3.1231294)
(-190401.5 0 3.6438406)
(-190407.5 1.1030356e-13 3.1234545)
(-190414 0 3.1236172)
(-190420 0 3.1237798)
(-190426 0 3.1239424)
(-190432.5 0 3.1241051)
(-190438.5 -1.0770766e-13 3.1242677)
(-190444.5 0 3.1244304)
(-190450.5 0 3.1245932)
(-190456.5 0 3.1247559)
(-190463 1.0562966e-13 3.1249186)
(-190469 -1.0510998e-13 3.1250814)
(-190475 0 3.1252442)
(-190481.5 0 3.125407)
(-190487.5 0 3.6464981)
(-190493.5 1.0303056e-13 3.1257326)
(-190499.5 -1.0251053e-13 3.646878)
(-190505.5 0 3.1260583)
(-190512 1.0147025e-13 3.1262212)
(-190518 0 3.1263841)
(-190524 0 3.126547)
(-190530 9.9909295e-14 3.1267099)
(-190536.5 0 3.1268729)
(-190542.5 9.8868304e-14 3.1270358)
(-190548.5 0 3.1271988)
(-190555 0 3.1273618)
(-190561 9.7306285e-14 3.1275248)
(-190567 0 3.1276879)
(-190573 -9.6264582e-14 3.1278509)
(-190579 0 3.128014)
(-190585.5 0 3.1281771)
(-190591.5 0 3.1283402)
(-190597.5 0 3.1285033)
(-190604 -9.3659081e-14 3.1286664)
(-190610 0 3.1288296)
(-190616 0 3.1289927)
(-190622 0 3.1291559)
(-190628.5 0 3.1293191)
(-190634.5 -9.1051795e-14 3.1294823)
(-190640.5 0 3.1296456)
(-190647 9.0008382e-14 3.1298088)
(-190653 0 3.1299721)
(-190659 0 3.6518246)
(-190665 8.8442726e-14 3.1302987)
(-190671 0 3.130462)
(-190677.5 -8.7398601e-14 3.1306253)
(-190684 8.6876428e-14 3.1307887)
(-190689.5 0 3.6527774)
(-190695.5 8.5831874e-14 3.1311155)
(-190702 0 3.1312789)
(-190708.5 -8.4787032e-14 3.1314423)
(-190714.5 8.4264502e-14 3.65354)
(-190720.5 0 3.1317692)
(-190726.5 0 3.6539214)
(-190732.5 0 3.1320962)
(-190739 -8.2173673e-14 3.1322597)
(-190745 0 3.1324232)
(-190751 0 3.1325867)
(-190757.5 0 3.1327503)
(-190763.5 0 3.1329139)
(-190769.5 -7.9558528e-14 3.1330775)
(-190776 0 3.1332411)
(-190782 0 3.1334047)
(-190788 0 3.1335683)
(-190794.5 0 3.133732)
(-190800.5 0 3.6562116)
(-190806.5 0 3.1340594)
(-190813 -7.5894311e-14 3.1342231)
(-190818.5 7.5370566e-14 3.6567846)
(-190825 0 3.1345506)
(-190831.5 7.4322858e-14 3.6571667)
(-190837 7.3798896e-14 3.1348781)
(-190843.5 -7.3274864e-14 3.1350419)
(-190850 7.2750758e-14 3.1352057)
(-190856 0 3.6579312)
(-190862 7.1702333e-14 3.6581223)
(-190868 7.1178013e-14 3.6583135)
(-190874 -7.065362e-14 3.1358612)
(-190880.5 0 3.1360251)
(-190887 0 3.136189)
(-190892.5 6.9080012e-14 3.6590784)
(-190898.5 0 3.1365169)
(-190905.5 0 3.1366809)
(-190911.5 0 3.6596523)
(-190917.5 0 3.1370089)
(-190923.5 6.6455893e-14 3.660035)
(-190929.5 0 3.1373369)
(-190936 0 3.137501)
(-190942 0 3.1376651)
(-190948.5 -6.4355304e-14 3.1378291)
(-190954.5 0 3.1379933)
(-190960.5 0 3.1381574)
(-190967 0 3.1383215)
(-190973 6.225356e-14 3.1384857)
(-190979 -6.1727944e-14 3.1386499)
(-190985.5 6.1202257e-14 3.1388141)
(-190991.5 6.0676495e-14 3.1389783)
(-190997.5 0 3.1391425)
(-191004 5.962476e-14 3.1393067)
(-191010 -5.9098783e-14 3.139471)
(-191016 5.8572735e-14 3.1396353)
(-191022.5 5.8046615e-14 3.1397996)
(-191029 0 3.1399639)
(-191034.5 0 3.6634829)
(-191040.5 0 3.1402926)
(-191047.5 5.594141e-14 3.1404569)
(-191053.5 -5.5414927e-14 3.6640582)
(-191059.5 0 3.1407857)
(-191065.5 0 3.6644418)
(-191071.5 0 3.1411146)
(-191078 5.3308278e-14 3.141279)
(-191084.5 -5.2781435e-14 3.1414435)
(-191090.5 0 3.6652093)
(-191096.5 0 3.1417725)
(-191102.5 0 3.6655932)
(-191109 0 3.1421015)
(-191115.5 -5.0146133e-14 3.6659771)
(-191121 0 3.1424307)
(-191127.5 4.9091507e-14 3.1425953)
(-191133.5 0 3.1427599)
(-191139.5 4.8036591e-14 3.1429245)
(-191146.5 4.7509025e-14 3.1430891)
(-191152.5 0 3.6671294)
(-191158 4.6453672e-14 3.1434185)
(-191164.5 0 3.1435832)
(-191171 4.5398032e-14 3.1437479)
(-191177 4.4870102e-14 3.1439126)
(-191183.5 0 3.1440773)
(-191189.5 -4.3814026e-14 3.6682825)
(-191195.5 0 3.1444069)
(-191202 4.2757659e-14 3.1445717)
(-191208 0 3.6688592)
(-191214 0 3.1449013)
(-191220.5 -4.1172567e-14 3.1450662)
(-191226.5 0 3.6694362)
(-191232.5 4.0115475e-14 3.1453959)
(-191239 0 3.1455608)
(-191245 0 3.1457257)
(-191251.5 -3.8529293e-14 3.1458907)
(-191258 0 3.1460556)
(-191263.5 0 3.6705907)
(-191270 0 3.1463856)
(-191276.5 0 3.6709757)
(-191282 3.58842e-14 3.1467156)
(-191288.5 0 3.1468807)
(-191295 0 3.1470457)
(-191301 3.4296273e-14 3.1472108)
(-191307 0 3.1473759)
(-191313.5 3.3237292e-14 3.147541)
(-191320 0 3.1477061)
(-191326 0 3.6725165)
(-191332 3.1648272e-14 3.6727091)
(-191338 0 3.6729019)
(-191344.5 0 3.1483668)
(-191350.5 0 3.6732873)
(-191356.5 0 3.1486972)
(-191363.5 0 3.1488625)
(-191369.5 0 3.6738657)
(-191375.25 0 3.149193)
(-191381.65 0 3.2543369)
(-191387.95 0 3.2545078)
(-191394.15 0 3.2546786)
(-191400.35 0 3.2548495)
(-191406.6 0 3.2550203)
(-191412.8 0 3.2551912)
(-191419 0 3.2553622)
(-191425.2 0 3.2555331)
(-191431.45 -2.3162424e-14 3.255704)
(-191437.65 2.2631438e-14 3.255875)
(-191443.85 0 3.256046)
(-191450.1 0 3.256217)
(-191456.35 0 3.256388)
(-191462.55 -2.0506764e-14 3.2565591)
(-191468.75 1.9975413e-14 3.2567301)
(-191475 0 3.2569012)
(-191481.25 1.8912491e-14 3.2570723)
(-191487.5 1.838092e-14 3.2572434)
(-191493.7 -1.7849276e-14 3.2574146)
(-191499.9 0 3.2575857)
(-191506.15 0 3.2577569)
(-191512.45 1.6253905e-14 3.2579281)
(-191518.65 0 3.3106493)
(-191524.9 0 3.2582705)
(-191531.15 0 3.3109972)
(-191537.4 0 3.258613)
(-191543.7 1.3593487e-14 3.3113453)
(-191549.95 0 3.3115194)
(-191556.2 0 3.3116934)
(-191562.45 0 3.2592982)
(-191568.75 -1.1463832e-14 3.2594695)
(-191575.05 0 3.2596409)
(-191581.3 0 3.2598123)
(-191587.55 0 3.2599837)
(-191593.85 9.3330017e-15 3.2601551)
(-191600.1 -8.8001104e-15 3.2603266)
(-191606.25 0 3.260498)
(-191612.4 0 3.1554866)
(-191618.55 0 3.1030584)
(-191624.55 6.6678126e-15 3.1032216)
(-191630.35 -6.1345557e-15 2.9981853)
(-191636.05 5.6012268e-15 2.8405355)
(-191641.55 5.0678259e-15 2.7354744)
(-191646.6 0 2.5251861)
(-191651.3 0 2.2622649)
(-191655.6 0 1.8940889)
(-191658.62 2.9335232e-15 1.4732577)
(-191657.63 -2.399784e-15 1.4207161)
(-191661.97 0 0.1841766)
(-191726.87 0 -10.124984)
(-191677.88 0 -15.304055)
(-190589.41 2.6430742e-16 60.348938)
(-234241.63 5.019838e-13 -68301.708)
(-445210.35 -5.0079867e-13 -58649.399)
(-388520.4 0 -58097.262)
(-336204.71 4.9882193e-13 -53189.308)
(-302974.01 0 -45645.27)
(-276413.34 0 -38090.475)
(-254242.73 0 -31140.121)
(-236472.18 4.9609495e-13 -24954.358)
(-222586.71 0 -19653.353)
(-211901.32 0 -15242.24)
(-203781.01 0 -11646.114)
(-197705.76 4.9400646e-13 -8765.0399)
(-193230.56 4.9352422e-13 -6499.0619)
(-189990.41 0 -4738.1983)
(-187695.29 0 -3382.4523)
(-186110.2 0 -2356.8265)
(-185060.13 0 -1581.3046)
(-184400.08 4.9118946e-13 -1010.8845)
(-184020.05 4.9072791e-13 -600.55551)
(-183840.02 0 -300.29279)
(-183805.01 0 -95.097475)
(-183864.99 0 50.053808)
(-183979.99 4.8888051e-13 140.15768)
(-184129.98 0 195.22939)
(-184294.98 0 220.26983)
(-184469.98 0 235.30001)
(-184639.98 0 230.30515)
(-184799.98 0 220.30292)
(-184954.98 0 210.29968)
(-185094.98 4.8562756e-13 195.28805)
(-185219.98 0 175.26728)
(-185329.99 0 155.24451)
(-185424.99 0 140.22787)
(-185509.99 0 120.20134)
(-185589.99 4.8329123e-13 110.19008)
(-185654.99 0 95.168925)
(-185709.99 0 85.155409)
(-185759.99 0 70.131497)
(-185799.99 0 60.115723)
(-185840 4.8094907e-13 55.10884)
(-185870 0 45.09131)
(-185895 0 40.083173)
(-185920 0 30.063886)
(-185940 0 30.065392)
(-185960 0 25.055749)
(-185975 0 25.057005)
(-185990 0 20.046608)
(-186000 0 20.047613)
(-186010 0 20.048618)
(-186025 0 15.037217)
(-186035 0 15.037971)
(-186040 4.7531605e-13 15.038725)
(-186045 0 10.026319)
(-186060 0 10.026822)
(-186065 0 10.027324)
(-186070 0 10.027827)
(-186080 4.7296574e-13 10.02833)
(-186080 0 10.028833)
(-186090 0 10.029336)
(-186100 0 5.0149194)
(-186100 0 10.030342)
(-186105 4.7061383e-13 10.030845)
(-186115 0 10.031348)
(-186120 0 10.031851)
(-186125 0 10.032354)
(-186135 0 10.032858)
(-186140 0 5.0166805)
(-186140 0 5.0169321)
(-186150 4.6731851e-13 10.034368)
(-186155 0 5.0174356)
(-186160 0 10.035375)
(-186170 0 5.0179391)
(-186170 0 5.0181909)
(-186175 4.6496282e-13 10.036886)
(-186185 0 10.037389)