/*--------------------------------*- C++ -*----------------------------------*\
  =========                 |
  \\      /  F ield         | OpenFOAM: The Open Source CFD Toolbox
   \\    /   O peration     | Website:  https://openfoam.org
    \\  /    A nd           | Version:  6
     \\/     M anipulation  |
\*---------------------------------------------------------------------------*/
FoamFile
{
    version     2.0;
    format      ascii;
    class       volScalarField;
    location    "10";
    object      p;
}
// * * * * * * * * * * * * * * * * * * * * * * * * * * * * * * * * * * * * * //

dimensions      [0 2 -2 0 0 0 0];

internalField   nonuniform List<scalar> 
10000
(
18980196
18931747
18889836
18854148
18821907
18792530
18765642
18740790
18717559
18695597
18674616
18654381
18634707
18615445
18596482
18577732
18559127
18540620
18522174
18503762
18485366
18466973
18448575
18430165
18411742
18393302
18374846
18356374
18337886
18319384
18300869
18282343
18263806
18245260
18226705
18208144
18189576
18171003
18152426
18133844
18115259
18096671
18078081
18059488
18040893
18022296
18003698
17985099
17966498
17947897
17929294
17910690
17892086
17873481
17854875
17836268
17817661
17799053
17780444
17761835
17743225
17724614
17706003
17687391
17668779
17650166
17631553
17612939
17594324
17575709
17557093
17538477
17519860
17501242
17482624
17464005
17445386
17426766
17408146
17389525
17370904
17352282
17333659
17315036
17296412
17277788
17259163
17240537
17221911
17203285
17184658
17166030
17147401
17128773
17110143
17091513
17072882
17054251
17035620
17016987
16998354
16979721
16961087
16942452
16923817
16905181
16886545
16867908
16849271
16830633
16811994
16793355
16774715
16756075
16737434
16718792
16700150
16681508
16662864
16644221
16625576
16606931
16588286
16569640
16550993
16532346
16513698
16495050
16476401
16457752
16439102
16420451
16401800
16383148
16364496
16345843
16327189
16308535
16289880
16271225
16252569
16233913
16215256
16196599
16177941
16159282
16140623
16121963
16103302
16084641
16065980
16047318
16028655
16009992
15991328
15972664
15953999
15935333
15916667
15898000
15879333
15860665
15841997
15823328
15804658
15785988
15767318
15748646
15729974
15711302
15692629
15673955
15655281
15636606
15617931
15599255
15580579
15561902
15543224
15524546
15505867
15487188
15468508
15449828
15431147
15412465
15393783
15375100
15356417
15337733
15319048
15300363
15281677
15262991
15244304
15225617
15206929
15188241
15169552
15150862
15132172
15113481
15094789
15076097
15057405
15038712
15020018
15001324
14982629
14963933
14945237
14926541
14907843
14889146
14870447
14851748
14833049
14814349
14795648
14776947
14758245
14739543
14720840
14702136
14683432
14664728
14646022
14627316
14608610
14589903
14571195
14552487
14533779
14515069
14496359
14477649
14458938
14440226
14421514
14402801
14384088
14365374
14346659
14327944
14309229
14290512
14271795
14253078
14234360
14215641
14196922
14178203
14159482
14140761
14122040
14103318
14084595
14065872
14047148
14028424
14009699
13990973
13972247
13953521
13934793
13916065
13897337
13878608
13859878
13841148
13822418
13803686
13784954
13766222
13747489
13728755
13710021
13691286
13672551
13653815
13635078
13616341
13597603
13578865
13560126
13541387
13522647
13503906
13485165
13466423
13447681
13428938
13410194
13391450
13372705
13353960
13335214
13316468
13297721
13278973
13260225
13241476
13222727
13203977
13185226
13166475
13147724
13128971
13110219
13091465
13072711
13053957
13035201
13016446
12997689
12978932
12960175
12941417
12922658
12903899
12885139
12866379
12847618
12828856
12810094
12791331
12772568
12753804
12735039
12716274
12697509
12678742
12659975
12641208
12622440
12603671
12584902
12566133
12547362
12528591
12509820
12491048
12472275
12453502
12434728
12415953
12397178
12378403
12359627
12340850
12322072
12303295
12284516
12265737
12246957
12228177
12209396
12190615
12171833
12153050
12134267
12115483
12096699
12077914
12059128
12040342
12021555
12002768
11983980
11965191
11946402
11927613
11908823
11890032
11871240
11852448
11833656
11814863
11796069
11777274
11758479
11739684
11720888
11702091
11683294
11664496
11645698
11626899
11608099
11589299
11570498
11551696
11532895
11514092
11495289
11476485
11457681
11438876
11420070
11401264
11382458
11363650
11344842
11326034
11307225
11288415
11269605
11250794
11231983
11213171
11194358
11175545
11156732
11137917
11119102
11100287
11081471
11062654
11043837
11025019
11006200
10987381
10968562
10949742
10930921
10912099
10893277
10874455
10855632
10836808
10817984
10799159
10780333
10761507
10742680
10723853
10705025
10686197
10667368
10648538
10629708
10610877
10592045
10573213
10554381
10535548
10516714
10497880
10479045
10460209
10441373
10422536
10403699
10384861
10366022
10347183
10328344
10309503
10290662
10271821
10252979
10234136
10215293
10196449
10177605
10158760
10139914
10121068
10102221
10083374
10064526
10045677
10026828
10007978
9989128.1
9970277.1
9951425.6
9932573.5
9913720.8
9894867.5
9876013.6
9857159.1
9838304
9819448.4
9800592.1
9781735.2
9762877.8
9744019.7
9725161.1
9706301.9
9687442.1
9668581.6
9649720.6
9630859
9611996.8
9593134.1
9574270.7
9555406.7
9536542.1
9517677
9498811.2
9479944.9
9461077.9
9442210.4
9423342.3
9404473.5
9385604.2
9366734.3
9347863.8
9328992.7
9310121
9291248.7
9272375.8
9253502.3
9234628.3
9215753.6
9196878.3
9178002.5
9159126
9140249
9121371.3
9102493.1
9083614.3
9064734.8
9045854.8
9026974.2
9008093
8989211.2
8970328.8
8951445.8
8932562.2
8913678
8894793.2
8875907.8
8857021.8
8838135.3
8819248.1
8800360.3
8781472
8762583
8743693.4
8724803.3
8705912.6
8687021.2
8668129.3
8649236.7
8630343.6
8611449.9
8592555.5
8573660.6
8554765.1
8535869
8516972.3
8498075
8479177.1
8460278.6
8441379.5
8422479.8
8403579.5
8384678.6
8365777.1
8346875
8327972.3
8309069
8290165.2
8271260.7
8252355.6
8233449.9
8214543.7
8195636.8
8176729.3
8157821.3
8138912.6
8120003.4
8101093.5
8082183
8063272
8044360.3
8025448.1
8006535.2
7987621.8
7968707.8
7949793.1
7930877.9
7911962
7893045.6
7874128.5
7855210.9
7836292.7
7817373.8
7798454.4
7779534.4
7760613.7
7741692.5
7722770.7
7703848.2
7684925.2
7666001.6
7647077.4
7628152.5
7609227.1
7590301.1
7571374.4
7552447.2
7533519.4
7514591
7495661.9
7476732.3
7457802.1
7438871.3
7419939.8
7401007.8
7382075.2
7363141.9
7344208.1
7325273.7
7306338.7
7287403
7268466.8
7249530
7230592.5
7211654.5
7192715.9
7173776.6
7154836.8
7135896.3
7116955.3
7098013.7
7079071.4
7060128.6
7041185.1
7022241.1
7003296.4
6984351.2
6965405.3
6946458.9
6927511.8
6908564.2
6889615.9
6870667
6851717.6
6832767.5
6813816.8
6794865.6
6775913.7
6756961.2
6738008.1
6719054.5
6700100.2
6681145.3
6662189.8
6643233.7
6624277
6605319.7
6586361.8
6567403.3
6548444.2
6529484.5
6510524.1
6491563.2
6472601.7
6453639.6
6434676.8
6415713.5
6396749.6
6377785
6358819.9
6339854.1
6320887.8
6301920.8
6282953.3
6263985.1
6245016.4
6226047
6207077
6188106.4
6169135.3
6150163.5
6131191.1
6112218.1
6093244.5
6074270.3
6055295.5
6036320.1
6017344
5998367.4
5979390.2
5960412.4
5941433.9
5922454.9
5903475.2
5884495
5865514.1
5846532.7
5827550.6
5808567.9
5789584.7
5770600.8
5751616.3
5732631.2
5713645.5
5694659.2
5675672.3
5656684.8
5637696.6
5618707.9
5599718.6
5580728.6
5561738.1
5542746.9
5523755.2
5504762.8
5485769.8
5466776.2
5447782
5428787.2
5409791.8
5390795.8
5371799.2
5352802
5333804.2
5314805.7
5295806.7
5276807
5257806.8
5238805.9
5219804.4
5200802.3
5181799.7
5162796.4
5143792.5
5124787.9
5105782.8
5086777.1
5067770.8
5048763.8
5029756.3
5010748.1
4991739.3
4972730
4953720
4934709.4
4915698.2
4896686.4
4877673.9
4858660.9
4839647.3
4820633
4801618.2
4782602.7
4763586.6
4744570
4725552.7
4706534.8
4687516.3
4668497.2
4649477.4
4630457.1
4611436.2
4592414.6
4573392.4
4554369.7
4535346.3
4516322.3
4497297.7
4478272.5
4459246.7
4440220.2
4421193.2
4402165.5
4383137.3
4364108.4
4345078.9
4326048.8
4307018.1
4287986.8
4268954.9
4249922.4
4230889.2
4211855.5
4192821.1
4173786.1
4154750.6
4135714.4
4116677.5
4097640.1
4078602.1
4059563.5
4040524.2
4021484.3
4002443.9
3983402.8
3964361.1
3945318.8
3926275.9
3907232.3
3888188.2
3869143.4
3850098.1
3831052.1
3812005.5
3792958.3
3773910.5
3754862
3735813
3716763.3
3697713.1
3678662.2
3659610.7
3640558.6
3621505.9
3602452.6
3583398.6
3564344.1
3545288.9
3526233.1
3507176.7
3488119.7
3469062.1
3450003.9
3430945
3411885.6
3392825.5
3373764.8
3354703.5
3335641.6
3316579.1
3297515.9
3278452.2
3259387.8
3240322.8
3221257.2
3202191
3183124.2
3164056.8
3144988.7
3125920
3106850.8
3087780.9
3068710.4
3049639.2
3030567.5
3011495.1
2992422.2
2973348.6
2954274.4
2935199.6
2916124.2
2897048.1
2877971.5
2858894.2
2839816.3
2820737.8
2801658.7
2782578.9
2763498.6
2744417.6
2725336
2706253.9
2687171
2668087.6
2649003.6
2629918.9
2610833.6
2591747.7
2572661.2
2553574.1
2534486.4
2515398
2496309
2477219.5
2458129.3
2439038.4
2419947
2400854.9
2381762.3
2362669
2343575.1
2324480.6
2305385.4
2286289.7
2267193.3
2248096.3
2228998.7
2209900.5
2190801.6
2171702.2
2152602.1
2133501.4
2114400.1
2095298.2
2076195.6
2057092.4
2037988.7
2018884.3
1999779.2
1980673.6
1961567.3
1942460.5
1923353
1904244.9
1885136.1
1866026.8
1846916.8
1827806.3
1808695
1789583.2
1770470.8
1751357.7
1732244.1
1713129.8
1694014.8
1674899.3
1655783.2
1636666.4
1617549
1598431
1579312.3
1560193.1
1541073.2
1521952.7
1502831.6
1483709.9
1464587.5
1445464.6
1426341
1407216.8
1388092
1368966.5
1349840.4
1330713.8
1311586.4
1292458.5
1273330
1254200.8
1235071
1215940.6
1196809.6
1177677.9
1158545.6
1139412.7
1120279.2
1101145.1
1082010.3
1062875
1043739
1024602.3
1005465.1
986327.25
967188.77
948049.66
928909.94
909769.59
890628.62
871487.03
852344.82
833201.99
814058.53
794914.46
775769.76
756624.44
737478.49
718331.93
699184.74
680036.93
660888.49
641739.43
622589.75
603439.45
584288.52
565136.96
545984.79
526831.98
507678.56
488524.5
469369.82
450214.51
431058.58
411902.02
392744.83
373587.01
354428.57
335269.5
316109.8
296949.48
277788.55
258627
239464.84
220302.09
201138.77
181974.88
162810.46
143645.56
124480.2
105314.44
86148.475
66982.914
47816.081
28637.539
9480.5056
18974999
18928151
18885958
18850448
18818718
18789854
18763436
18739006
18716142
18694489
18673762
18653733
18634221
18615087
18596223
18577548
18559001
18540536
18522121
18503732
18485353
18466971
18448580
18430175
18411754
18393316
18374860
18356388
18337900
18319397
18300881
18282353
18263815
18245268
18226713
18208150
18189582
18171008
18152430
18133848
18115262
18096674
18078083
18059490
18040895
18022298
18003700
17985100
17966500
17947898
17929295
17910691
17892087
17873482
17854875
17836269
17817661
17799053
17780445
17761835
17743225
17724615
17706004
17687392
17668780
17650167
17631553
17612939
17594325
17575709
17557094
17538477
17519860
17501243
17482625
17464006
17445387
17426767
17408147
17389526
17370904
17352282
17333660
17315037
17296413
17277788
17259164
17240538
17221912
17203285
17184658
17166030
17147402
17128773
17110144
17091514
17072883
17054252
17035620
17016988
16998355
16979721
16961087
16942453
16923818
16905182
16886546
16867909
16849271
16830633
16811995
16793355
16774716
16756075
16737434
16718793
16700151
16681508
16662865
16644221
16625577
16606932
16588287
16569641
16550994
16532347
16513699
16495051
16476402
16457752
16439102
16420452
16401800
16383149
16364496
16345843
16327190
16308536
16289881
16271226
16252570
16233914
16215257
16196599
16177941
16159282
16140623
16121963
16103303
16084642
16065981
16047318
16028656
16009993
15991329
15972664
15953999
15935334
15916668
15898001
15879334
15860666
15841998
15823329
15804659
15785989
15767318
15748647
15729975
15711303
15692630
15673956
15655282
15636607
15617932
15599256
15580579
15561902
15543225
15524547
15505868
15487189
15468509
15449828
15431147
15412466
15393783
15375101
15356417
15337733
15319049
15300364
15281678
15262992
15244305
15225618
15206930
15188241
15169552
15150862
15132172
15113481
15094790
15076098
15057405
15038712
15020019
15001324
14982629
14963934
14945238
14926541
14907844
14889146
14870448
14851749
14833050
14814350
14795649
14776948
14758246
14739543
14720841
14702137
14683433
14664728
14646023
14627317
14608611
14589904
14571196
14552488
14533779
14515070
14496360
14477649
14458938
14440227
14421515
14402802
14384088
14365375
14346660
14327945
14309229
14290513
14271796
14253079
14234361
14215642
14196923
14178203
14159483
14140762
14122041
14103318
14084596
14065873
14047149
14028424
14009700
13990974
13972248
13953521
13934794
13916066
13897338
13878609
13859879
13841149
13822418
13803687
13784955
13766222
13747489
13728756
13710021
13691287
13672551
13653815
13635079
13616342
13597604
13578866
13560127
13541387
13522647
13503907
13485165
13466424
13447681
13428938
13410195
13391451
13372706
13353961
13335215
13316468
13297721
13278974
13260226
13241477
13222727
13203978
13185227
13166476
13147724
13128972
13110219
13091466
13072712
13053957
13035202
13016446
12997690
12978933
12960175
12941417
12922659
12903899
12885140
12866379
12847618
12828857
12810094
12791332
12772568
12753804
12735040
12716275
12697509
12678743
12659976
12641209
12622441
12603672
12584903
12566133
12547363
12528592
12509820
12491048
12472276
12453502
12434728
12415954
12397179
12378403
12359627
12340850
12322073
12303295
12284517
12265738
12246958
12228178
12209397
12190615
12171833
12153051
12134267
12115484
12096699
12077914
12059129
12040343
12021556
12002768
11983981
11965192
11946403
11927613
11908823
11890032
11871241
11852449
11833656
11814863
11796069
11777275
11758480
11739685
11720888
11702092
11683295
11664497
11645698
11626899
11608100
11589299
11570498
11551697
11532895
11514093
11495289
11476486
11457681
11438876
11420071
11401265
11382458
11363651
11344843
11326035
11307226
11288416
11269606
11250795
11231984
11213172
11194359
11175546
11156732
11137918
11119103
11100287
11081471
11062655
11043837
11025020
11006201
10987382
10968562
10949742
10930921
10912100
10893278
10874455
10855632
10836809
10817984
10799159
10780334
10761508
10742681
10723854
10705026
10686197
10667368
10648539
10629708
10610878
10592046
10573214
10554381
10535548
10516715
10497880
10479045
10460210
10441373
10422537
10403699
10384862
10366023
10347184
10328344
10309504
10290663
10271822
10252980
10234137
10215294
10196450
10177605
10158760
10139915
10121069
10102222
10083374
10064526
10045678
10026829
10007979
9989128.7
9970277.7
9951426.2
9932574.1
9913721.4
9894868.1
9876014.2
9857159.7
9838304.6
9819449
9800592.7
9781735.9
9762878.4
9744020.4
9725161.7
9706302.5
9687442.7
9668582.3
9649721.3
9630859.7
9611997.5
9593134.7
9574271.3
9555407.3
9536542.8
9517677.6
9498811.8
9479945.5
9461078.5
9442211
9423342.9
9404474.2
9385604.8
9366734.9
9347864.4
9328993.3
9310121.6
9291249.3
9272376.4
9253503
9234628.9
9215754.2
9196879
9178003.1
9159126.6
9140249.6
9121372
9102493.7
9083614.9
9064735.5
9045855.4
9026974.8
9008093.6
8989211.8
8970329.4
8951446.4
8932562.8
8913678.6
8894793.8
8875908.4
8857022.5
8838135.9
8819248.7
8800360.9
8781472.6
8762583.6
8743694.1
8724803.9
8705913.2
8687021.8
8668129.9
8649237.4
8630344.2
8611450.5
8592556.2
8573661.2
8554765.7
8535869.6
8516972.9
8498075.6
8479177.7
8460279.2
8441380.1
8422480.4
8403580.1
8384679.2
8365777.7
8346875.6
8327972.9
8309069.7
8290165.8
8271261.3
8252356.2
8233450.6
8214544.3
8195637.4
8176730
8157821.9
8138913.2
8120004
8101094.1
8082183.7
8063272.6
8044361
8025448.7
8006535.9
7987622.4
7968708.4
7949793.7
7930878.5
7911962.6
7893046.2
7874129.2
7855211.5
7836293.3
7817374.5
7798455
7779535
7760614.4
7741693.1
7722771.3
7703848.9
7684925.8
7666002.2
7647078
7628153.1
7609227.7
7590301.7
7571375.1
7552447.8
7533520
7514591.6
7495662.6
7476732.9
7457802.7
7438871.9
7419940.5
7401008.4
7382075.8
7363142.6
7344208.7
7325274.3
7306339.3
7287403.6
7268467.4
7249530.6
7230593.2
7211655.1
7192716.5
7173777.2
7154837.4
7135897
7116955.9
7098014.3
7079072
7060129.2
7041185.8
7022241.7
7003297.1
6984351.8
6965406
6946459.5
6927512.4
6908564.8
6889616.5
6870667.7
6851718.2
6832768.1
6813817.5
6794866.2
6775914.3
6756961.8
6738008.8
6719055.1
6700100.8
6681145.9
6662190.4
6643234.3
6624277.6
6605320.3
6586362.4
6567403.9
6548444.8
6529485.1
6510524.8
6491563.8
6472602.3
6453640.2
6434677.5
6415714.1
6396750.2
6377785.7
6358820.5
6339854.8
6320888.4
6301921.5
6282953.9
6263985.7
6245017
6226047.6
6207077.6
6188107.1
6169135.9
6150164.1
6131191.7
6112218.7
6093245.1
6074270.9
6055296.1
6036320.7
6017344.7
5998368
5979390.8
5960413
5941434.5
5922455.5
5903475.9
5884495.6
5865514.8
5846533.3
5827551.2
5808568.6
5789585.3
5770601.4
5751616.9
5732631.8
5713646.1
5694659.8
5675672.9
5656685.4
5637697.3
5618708.5
5599719.2
5580729.2
5561738.7
5542747.5
5523755.8
5504763.4
5485770.4
5466776.8
5447782.7
5428787.9
5409792.5
5390796.5
5371799.8
5352802.6
5333804.8
5314806.3
5295807.3
5276807.7
5257807.4
5238806.5
5219805
5200803
5181800.3
5162797
5143793.1
5124788.6
5105783.4
5086777.7
5067771.4
5048764.4
5029756.9
5010748.7
4991740
4972730.6
4953720.6
4934710
4915698.8
4896687
4877674.6
4858661.5
4839647.9
4820633.7
4801618.8
4782603.3
4763587.3
4744570.6
4725553.3
4706535.4
4687516.9
4668497.8
4649478.1
4630457.7
4611436.8
4592415.2
4573393.1
4554370.3
4535346.9
4516322.9
4497298.3
4478273.1
4459247.3
4440220.9
4421193.8
4402166.2
4383137.9
4364109
4345079.6
4326049.5
4307018.8
4287987.4
4268955.5
4249923
4230889.9
4211856.1
4192821.7
4173786.8
4154751.2
4135715
4116678.2
4097640.7
4078602.7
4059564.1
4040524.8
4021485
4002444.5
3983403.4
3964361.7
3945319.4
3926276.5
3907232.9
3888188.8
3869144
3850098.7
3831052.7
3812006.1
3792958.9
3773911.1
3754862.7
3735813.6
3716764
3697713.7
3678662.8
3659611.3
3640559.2
3621506.5
3602453.2
3583399.2
3564344.7
3545289.5
3526233.7
3507177.3
3488120.3
3469062.7
3450004.5
3430945.6
3411886.2
3392826.1
3373765.4
3354704.1
3335642.2
3316579.7
3297516.5
3278452.8
3259388.4
3240323.4
3221257.9
3202191.6
3183124.8
3164057.4
3144989.3
3125920.7
3106851.4
3087781.5
3068711
3049639.9
3030568.1
3011495.8
2992422.8
2973349.2
2954275
2935200.2
2916124.8
2897048.7
2877972.1
2858894.8
2839816.9
2820738.4
2801659.3
2782579.6
2763499.2
2744418.2
2725336.7
2706254.5
2687171.7
2668088.2
2649004.2
2629919.5
2610834.3
2591748.4
2572661.9
2553574.7
2534487
2515398.6
2496309.7
2477220.1
2458129.9
2439039.1
2419947.6
2400855.6
2381762.9
2362669.6
2343575.7
2324481.2
2305386
2286290.3
2267193.9
2248096.9
2228999.3
2209901.1
2190802.2
2171702.8
2152602.7
2133502
2114400.7
2095298.8
2076196.2
2057093.1
2037989.3
2018884.9
1999779.9
1980674.2
1961568
1942461.1
1923353.6
1904245.5
1885136.8
1866027.4
1846917.5
1827806.9
1808695.7
1789583.8
1770471.4
1751358.3
1732244.7
1713130.4
1694015.5
1674899.9
1655783.8
1636667
1617549.6
1598431.6
1579313
1560193.7
1541073.8
1521953.4
1502832.2
1483710.5
1464588.2
1445465.2
1426341.6
1407217.4
1388092.6
1368967.1
1349841.1
1330714.4
1311587.1
1292459.1
1273330.6
1254201.4
1235071.6
1215941.2
1196810.2
1177678.5
1158546.3
1139413.4
1120279.9
1101145.7
1082011
1062875.6
1043739.6
1024603
1005465.7
986327.87
967189.39
948050.28
928910.56
909770.21
890629.24
871487.65
852345.44
833202.61
814059.15
794915.08
775770.38
756625.06
737479.11
718332.55
699185.36
680037.55
660889.11
641740.05
622590.37
603440.07
584289.14
565137.59
545985.41
526832.61
507679.18
488525.13
469370.45
450215.14
431059.2
411902.64
392745.45
373587.63
354429.19
335270.12
316110.42
296950.1
277789.15
258627.59
239465.43
220302.66
201139.31
181975.4
162810.94
143645.99
124480.56
105314.72
86148.745
66982.949
47814.157
28634.631
9491.9722
18966536
18920018
18878218
18843512
18812780
18784914
18759416
18735801
18713630
18692550
18672288
18652629
18633408
18614498
18595806
18577261
18558811
18540418
18522054
18503702
18485347
18466983
18448603
18430204
18411786
18393349
18374892
18356418
18337928
18319423
18300904
18282374
18263834
18245284
18226727
18208163
18189593
18171017
18152438
18133855
18115268
18096679
18078087
18059494
18040898
18022301
18003702
17985103
17966502
17947900
17929297
17910693
17892088
17873483
17854877
17836270
17817663
17799055
17780446
17761836
17743227
17724616
17706005
17687393
17668781
17650168
17631554
17612940
17594326
17575710
17557095
17538478
17519861
17501244
17482626
17464007
17445388
17426768
17408148
17389527
17370905
17352283
17333661
17315038
17296414
17277790
17259165
17240539
17221913
17203286
17184659
17166032
17147403
17128774
17110145
17091515
17072884
17054253
17035621
17016989
16998356
16979723
16961089
16942454
16923819
16905183
16886547
16867910
16849272
16830634
16811996
16793356
16774717
16756076
16737435
16718794
16700152
16681509
16662866
16644222
16625578
16606933
16588288
16569642
16550995
16532348
16513700
16495052
16476403
16457753
16439103
16420453
16401801
16383150
16364497
16345844
16327191
16308537
16289882
16271227
16252571
16233915
16215258
16196600
16177942
16159284
16140624
16121965
16103304
16084643
16065982
16047320
16028657
16009994
15991330
15972665
15954000
15935335
15916669
15898002
15879335
15860667
15841999
15823330
15804660
15785990
15767319
15748648
15729976
15711304
15692631
15673957
15655283
15636608
15617933
15599257
15580581
15561904
15543226
15524548
15505869
15487190
15468510
15449829
15431148
15412467
15393785
15375102
15356418
15337734
15319050
15300365
15281679
15262993
15244306
15225619
15206931
15188242
15169553
15150864
15132173
15113482
15094791
15076099
15057407
15038713
15020020
15001325
14982630
14963935
14945239
14926542
14907845
14889147
14870449
14851750
14833051
14814351
14795650
14776949
14758247
14739545
14720842
14702138
14683434
14664729
14646024
14627318
14608612
14589905
14571197
14552489
14533780
14515071
14496361
14477651
14458940
14440228
14421516
14402803
14384090
14365376
14346661
14327946
14309230
14290514
14271797
14253080
14234362
14215643
14196924
14178204
14159484
14140763
14122042
14103320
14084597
14065874
14047150
14028426
14009701
13990975
13972249
13953522
13934795
13916067
13897339
13878610
13859880
13841150
13822419
13803688
13784956
13766224
13747490
13728757
13710023
13691288
13672552
13653816
13635080
13616343
13597605
13578867
13560128
13541388
13522648
13503908
13485167
13466425
13447682
13428939
13410196
13391452
13372707
13353962
13335216
13316470
13297723
13278975
13260227
13241478
13222729
13203979
13185228
13166477
13147725
13128973
13110220
13091467
13072713
13053958
13035203
13016447
12997691
12978934
12960177
12941419
12922660
12903901
12885141
12866380
12847619
12828858
12810096
12791333
12772569
12753806
12735041
12716276
12697510
12678744
12659977
12641210
12622442
12603673
12584904
12566134
12547364
12528593
12509821
12491049
12472277
12453503
12434730
12415955
12397180
12378405
12359628
12340852
12322074
12303296
12284518
12265739
12246959
12228179
12209398
12190616
12171834
12153052
12134268
12115485
12096700
12077915
12059130
12040344
12021557
12002770
11983982
11965193
11946404
11927614
11908824
11890033
11871242
11852450
11833657
11814864
11796070
11777276
11758481
11739686
11720890
11702093
11683296
11664498
11645699
11626900
11608101
11589300
11570500
11551698
11532896
11514094
11495291
11476487
11457682
11438878
11420072
11401266
11382459
11363652
11344844
11326036
11307227
11288417
11269607
11250796
11231985
11213173
11194360
11175547
11156733
11137919
11119104
11100289
11081472
11062656
11043838
11025021
11006202
10987383
10968564
10949743
10930922
10912101
10893279
10874457
10855633
10836810
10817985
10799160
10780335
10761509
10742682
10723855
10705027
10686198
10667369
10648540
10629709
10610879
10592047
10573215
10554383
10535549
10516716
10497881
10479046
10460211
10441375
10422538
10403701
10384863
10366024
10347185
10328345
10309505
10290664
10271823
10252981
10234138
10215295
10196451
10177607
10158762
10139916
10121070
10102223
10083376
10064528
10045679
10026830
10007980
9989129.8
9970278.9
9951427.3
9932575.2
9913722.5
9894869.2
9876015.3
9857160.8
9838305.8
9819450.1
9800593.8
9781737
9762879.5
9744021.5
9725162.8
9706303.6
9687443.8
9668583.4
9649722.4
9630860.8
9611998.6
9593135.8
9574272.4
9555408.4
9536543.9
9517678.7
9498813
9479946.6
9461079.7
9442212.1
9423344
9404475.3
9385605.9
9366736
9347865.5
9328994.4
9310122.7
9291250.4
9272377.6
9253504.1
9234630
9215755.3
9196880.1
9178004.2
9159127.8
9140250.7
9121373.1
9102494.8
9083616
9064736.6
9045856.5
9026975.9
9008094.7
8989212.9
8970330.5
8951447.5
8932563.9
8913679.7
8894794.9
8875909.5
8857023.6
8838137
8819249.8
8800362.1
8781473.7
8762584.7
8743695.2
8724805
8705914.3
8687022.9
8668131
8649238.5
8630345.3
8611451.6
8592557.3
8573662.4
8554766.8
8535870.7
8516974
8498076.7
8479178.8
8460280.3
8441381.2
8422481.5
8403581.2
8384680.3
8365778.8
8346876.7
8327974.1
8309070.8
8290166.9
8271262.4
8252357.4
8233451.7
8214545.4
8195638.5
8176731.1
8157823
8138914.4
8120005.1
8101095.2
8082184.8
8063273.7
8044362.1
8025449.8
8006537
7987623.5
7968709.5
7949794.8
7930879.6
7911963.8
7893047.3
7874130.3
7855212.6
7836294.4
7817375.6
7798456.1
7779536.1
7760615.5
7741694.2
7722772.4
7703850
7684927
7666003.3
7647079.1
7628154.3
7609228.8
7590302.8
7571376.2
7552449
7533521.1
7514592.7
7495663.7
7476734
7457803.8
7438873
7419941.6
7401009.5
7382076.9
7363143.7
7344209.9
7325275.4
7306340.4
7287404.8
7268468.5
7249531.7
7230594.3
7211656.2
7192717.6
7173778.4
7154838.5
7135898.1
7116957
7098015.4
7079073.2
7060130.3
7041186.9
7022242.8
7003298.2
6984352.9
6965407.1
6946460.6
6927513.6
6908565.9
6889617.6
6870668.8
6851719.3
6832769.2
6813818.6
6794867.3
6775915.4
6756962.9
6738009.9
6719056.2
6700101.9
6681147
6662191.5
6643235.4
6624278.7
6605321.4
6586363.5
6567405
6548445.9
6529486.2
6510525.9
6491565
6472603.4
6453641.3
6434678.6
6415715.3
6396751.3
6377786.8
6358821.6
6339855.9
6320889.5
6301922.6
6282955
6263986.9
6245018.1
6226048.7
6207078.8
6188108.2
6169137
6150165.2
6131192.8
6112219.8
6093246.2
6074272
6055297.2
6036321.8
6017345.8
5998369.2
5979391.9
5960414.1
5941435.7
5922456.6
5903477
5884496.7
5865515.9
5846534.4
5827552.3
5808569.7
5789586.4
5770602.5
5751618
5732632.9
5713647.2
5694660.9
5675674
5656686.5
5637698.4
5618709.6
5599720.3
5580730.4
5561739.8
5542748.7
5523756.9
5504764.5
5485771.5
5466778
5447783.8
5428789
5409793.6
5390797.6
5371801
5352803.7
5333805.9
5314807.5
5295808.4
5276808.8
5257808.5
5238807.6
5219806.2
5200804.1
5181801.4
5162798.1
5143794.2
5124789.7
5105784.6
5086778.8
5067772.5
5048765.5
5029758
5010749.8
4991741.1
4972731.7
4953721.7
4934711.1
4915699.9
4896688.1
4877675.7
4858662.7
4839649
4820634.8
4801619.9
4782604.5
4763588.4
4744571.7
4725554.4
4706536.5
4687518
4668498.9
4649479.2
4630458.8
4611437.9
4592416.3
4573394.2
4554371.4
4535348
4516324
4497299.4
4478274.2
4459248.4
4440222
4421194.9
4402167.3
4383139
4364110.1
4345080.7
4326050.6
4307019.9
4287988.6
4268956.6
4249924.1
4230891
4211857.2
4192822.8
4173787.9
4154752.3
4135716.1
4116679.3
4097641.9
4078603.8
4059565.2
4040525.9
4021486.1
4002445.6
3983404.5
3964362.8
3945320.5
3926277.6
3907234.1
3888189.9
3869145.2
3850099.8
3831053.8
3812007.2
3792960
3773912.2
3754863.8
3735814.7
3716765.1
3697714.8
3678663.9
3659612.4
3640560.3
3621507.6
3602454.3
3583400.4
3564345.8
3545290.6
3526234.9
3507178.5
3488121.5
3469063.8
3450005.6
3430946.8
3411887.3
3392827.2
3373766.5
3354705.2
3335643.3
3316580.8
3297517.7
3278453.9
3259389.5
3240324.6
3221259
3202192.8
3183125.9
3164058.5
3144990.4
3125921.8
3106852.5
3087782.6
3068712.1
3049641
3030569.2
3011496.9
2992423.9
2973350.3
2954276.1
2935201.3
2916125.9
2897049.8
2877973.2
2858895.9
2839818
2820739.5
2801660.4
2782580.7
2763500.3
2744419.4
2725337.8
2706255.6
2687172.8
2668089.3
2649005.3
2629920.6
2610835.4
2591749.5
2572663
2553575.9
2534488.1
2515399.8
2496310.8
2477221.2
2458131
2439040.2
2419948.7
2400856.7
2381764
2362670.7
2343576.8
2324482.3
2305387.2
2286291.4
2267195
2248098
2229000.4
2209902.2
2190803.4
2171703.9
2152603.8
2133503.1
2114401.8
2095299.9
2076197.3
2057094.2
2037990.4
2018886
1999781
1980675.3
1961569.1
1942462.2
1923354.7
1904246.6
1885137.9
1866028.5
1846918.6
1827808
1808696.8
1789585
1770472.5
1751359.5
1732245.8
1713131.5
1694016.6
1674901
1655784.9
1636668.1
1617550.7
1598432.7
1579314.1
1560194.8
1541075
1521954.5
1502833.4
1483711.6
1464589.3
1445466.3
1426342.7
1407218.5
1388093.7
1368968.2
1349842.2
1330715.5
1311588.2
1292460.2
1273331.7
1254202.5
1235072.7
1215942.3
1196811.3
1177679.6
1158547.4
1139414.5
1120281
1101146.8
1082012.1
1062876.7
1043740.7
1024604.1
1005466.8
986328.98
967190.5
948051.4
928911.67
909771.33
890630.36
871488.77
852346.56
833203.72
814060.27
794916.19
775771.49
756626.17
737480.23
718333.66
699186.47
680038.66
660890.23
641741.17
622591.49
603441.18
584290.26
565138.7
545986.53
526833.72
507680.3
488526.24
469371.56
450216.26
431060.32
411903.76
392746.57
373588.75
354430.31
335271.23
316111.53
296951.2
277790.25
258628.67
239466.49
220303.69
201140.31
181976.34
162811.82
143646.78
124481.23
105315.25
86149.133
66983.09
47813.544
28633.644
9494.6321
18953163
18906965
18866085
18832846
18803760
18777495
18753449
18731090
18709971
18689751
18670177
18651061
18632261
18613677
18595231
18576871
18558558
18540265
18521973
18503671
18485351
18467009
18448643
18430252
18411837
18393400
18374942
18356465
18337971
18319462
18300939
18282405
18263861
18245308
18226748
18208181
18189608
18171031
18152450
18133865
18115277
18096687
18078094
18059499
18040903
18022305
18003706
17985106
17966505
17947903
17929299
17910695
17892091
17873485
17854879
17836272
17817665
17799056
17780448
17761838
17743228
17724618
17706007
17687395
17668782
17650170
17631556
17612942
17594327
17575712
17557096
17538480
17519863
17501246
17482628
17464009
17445390
17426770
17408150
17389529
17370907
17352285
17333663
17315039
17296416
17277791
17259166
17240541
17221915
17203288
17184661
17166033
17147405
17128776
17110147
17091517
17072886
17054255
17035623
17016991
16998358
16979724
16961090
16942456
16923820
16905185
16886548
16867911
16849274
16830636
16811997
16793358
16774718
16756078
16737437
16718796