/*--------------------------------*- C++ -*----------------------------------*\
  =========                 |
  \\      /  F ield         | OpenFOAM: The Open Source CFD Toolbox
   \\    /   O peration     | Website:  https://openfoam.org
    \\  /    A nd           | Version:  6
     \\/     M anipulation  |
\*---------------------------------------------------------------------------*/
FoamFile
{
    version     2.0;
    format      ascii;
    class       surfaceScalarField;
    location    "10";
    object      phi;
}
// * * * * * * * * * * * * * * * * * * * * * * * * * * * * * * * * * * * * * //

dimensions      [0 3 -1 0 0 0 0];

internalField   nonuniform List<scalar> 
18990
(
0.014869471
9.3028988e-05
0.014642145
0.00022732567
0.014319276
0.00032286959
0.013939629
0.00037964711
0.013535187
0.00040444167
0.013129665
0.00040552241
0.01273954
0.00039012452
0.012375347
0.00036419267
0.01204299
0.00033235779
0.011744975
0.00029801491
0.01148146
0.00026351443
0.011251072
0.00023038823
0.011051514
0.00019955847
0.010880002
0.00017151118
0.01073357
0.00014643216
0.010609261
0.00012430907
0.010504256
0.00010500551
0.010415942
8.831337e-05
0.010341953
7.3988799e-05
0.010280177
6.1776205e-05
0.010228753
5.1423742e-05
0.010186061
4.2692785e-05
0.010150697
3.5363262e-05
0.010121461
2.9236181e-05
0.010097327
2.4134319e-05
0.010077425
1.9901723e-05
0.010061023
1.6402497e-05
0.010047504
1.3519192e-05
0.010036352
1.1151016e-05
0.01002714
9.212001e-06
0.010019511
7.6292216e-06
0.01001317
6.3411211e-06
0.010007874
5.2959717e-06
0.010003424
4.4504844e-06
0.0099996551
3.7685734e-06
0.0099964348
3.2202661e-06
0.0099936541
2.7807543e-06
0.0099912245
2.4295723e-06
0.0099890746
2.1498908e-06
0.0099871467
1.9279139e-06
0.0099853943
1.7523669e-06
0.0099837803
1.6140631e-06
0.0099822747
1.5055394e-06
0.009980854
1.4207507e-06
0.0099794992
1.3548156e-06
0.0099781954
1.3038036e-06
0.0099769308
1.2645599e-06
0.0099756962
1.23456e-06
0.0099744844
1.2117905e-06
0.0099732898
1.1946506e-06
0.0099721079
1.1818724e-06
0.0099709355
1.1724548e-06
0.0099697699
1.1656108e-06
0.0099686091
1.1607241e-06
0.0099674518
1.1573141e-06
0.0099662968
1.155008e-06
0.0099651433
1.1535181e-06
0.0099639907
1.1526235e-06
0.0099628385
1.1521559e-06
0.0099616865
1.1519879e-06
0.0099605345
1.1520239e-06
0.0099593823
1.152193e-06
0.0099582299
1.1524431e-06
0.0099570772
1.1527365e-06
0.0099559241
1.1530466e-06
0.0099547708
1.153355e-06
0.0099536171
1.1536494e-06
0.0099524632
1.1539219e-06
0.009951309
1.1541683e-06
0.0099501547
1.1543863e-06
0.0099490001
1.1545754e-06
0.0099478453
1.1547364e-06
0.0099466905
1.1548706e-06
0.0099455355
1.1549798e-06
0.0099443804
1.155066e-06
0.0099432253
1.1551314e-06
0.0099420701
1.1551781e-06
0.0099409149
1.155208e-06
0.0099397597
1.1552232e-06
0.0099386045
1.1552253e-06
0.0099374493
1.155216e-06
0.0099362941
1.1551967e-06
0.0099351389
1.1551687e-06
0.0099339838
1.1551332e-06
0.0099328287
1.1550912e-06
0.0099316737
1.1550435e-06
0.0099305187
1.1549909e-06
0.0099293637
1.1549341e-06
0.0099282089
1.1548738e-06
0.0099270541
1.1548103e-06
0.0099258993
1.1547441e-06
0.0099247446
1.1546757e-06
0.00992359
1.1546053e-06
0.0099224355
1.1545332e-06
0.0099212811
1.1544596e-06
0.0099201267
1.1543848e-06
0.0099189724
1.1543089e-06
0.0099178181
1.154232e-06
0.009916664
1.1541544e-06
0.0099155099
1.154076e-06
0.0099143559
1.153997e-06
0.009913202
1.1539175e-06
0.0099120481
1.1538375e-06
0.0099108944
1.1537572e-06
0.0099097407
1.1536764e-06
0.0099085871
1.1535954e-06
0.0099074336
1.153514e-06
0.0099062802
1.1534324e-06
0.0099051268
1.1533506e-06
0.0099039735
1.1532686e-06
0.0099028204
1.1531864e-06
0.0099016673
1.1531041e-06
0.0099005142
1.1530216e-06
0.0098993613
1.1529391e-06
0.0098982084
1.1528564e-06
0.0098970557
1.1527737e-06
0.009895903
1.1526909e-06
0.0098947504
1.152608e-06
0.0098935978
1.1525251e-06
0.0098924454
1.1524422e-06
0.009891293
1.1523592e-06
0.0098901407
1.1522763e-06
0.0098889886
1.1521933e-06
0.0098878364
1.1521104e-06
0.0098866844
1.1520275e-06
0.0098855325
1.1519445e-06
0.0098843806
1.1518616e-06
0.0098832288
1.1517787e-06
0.0098820771
1.1516957e-06
0.0098809255
1.1516128e-06
0.009879774
1.1515299e-06
0.0098786225
1.151447e-06
0.0098774712
1.151364e-06
0.0098763199
1.151281e-06
0.0098751687
1.151198e-06
0.0098740176
1.1511149e-06
0.0098728665
1.1510318e-06
0.0098717156
1.1509486e-06
0.0098705647
1.1508653e-06
0.0098694139
1.150782e-06
0.0098682632
1.1506986e-06
0.0098671126
1.1506151e-06
0.0098659621
1.1505315e-06
0.0098648116
1.1504478e-06
0.0098636613
1.150364e-06
0.009862511
1.1502801e-06
0.0098613608
1.1501962e-06
0.0098602107
1.1501122e-06
0.0098590606
1.1500281e-06
0.0098579107
1.1499439e-06
0.0098567608
1.1498597e-06
0.009855611
1.1497754e-06
0.0098544614
1.1496911e-06
0.0098533117
1.1496067e-06
0.0098521622
1.1495224e-06
0.0098510128
1.1494381e-06
0.0098498634
1.1493537e-06
0.0098487142
1.1492694e-06
0.009847565
1.1491851e-06
0.0098464159
1.1491009e-06
0.0098452669
1.1490167e-06
0.0098441179
1.1489326e-06
0.0098429691
1.1488486e-06
0.0098418203
1.1487646e-06
0.0098406716
1.1486808e-06
0.009839523
1.148597e-06
0.0098383745
1.1485133e-06
0.0098372261
1.1484298e-06
0.0098360778
1.1483463e-06
0.0098349295
1.1482629e-06
0.0098337813
1.1481796e-06
0.0098326332
1.1480964e-06
0.0098314852
1.1480133e-06
0.0098303373
1.1479303e-06
0.0098291894
1.1478474e-06
0.0098280417
1.1477646e-06
0.009826894
1.1476818e-06
0.0098257464
1.1475991e-06
0.0098245989
1.1475164e-06
0.0098234514
1.1474339e-06
0.0098223041
1.1473513e-06
0.0098211568
1.1472689e-06
0.0098200096
1.1471864e-06
0.0098188625
1.147104e-06
0.0098177155
1.1470217e-06
0.0098165686
1.1469393e-06
0.0098154217
1.146857e-06
0.0098142749
1.1467747e-06
0.0098131283
1.1466924e-06
0.0098119816
1.1466101e-06
0.0098108351
1.1465278e-06
0.0098096887
1.1464455e-06
0.0098085423
1.1463632e-06
0.009807396
1.1462808e-06
0.0098062498
1.1461985e-06
0.0098051037
1.1461161e-06
0.0098039577
1.1460337e-06
0.0098028117
1.1459513e-06
0.0098016659
1.1458688e-06
0.0098005201
1.1457864e-06
0.0097993744
1.1457039e-06
0.0097982288
1.1456213e-06
0.0097970832
1.1455388e-06
0.0097959378
1.1454562e-06
0.0097947924
1.1453735e-06
0.0097936471
1.1452909e-06
0.0097925019
1.1452082e-06
0.0097913568
1.1451255e-06
0.0097902117
1.1450427e-06
0.0097890668
1.1449599e-06
0.0097879219
1.1448771e-06
0.0097867771
1.1447943e-06
0.0097856324
1.1447114e-06
0.0097844877
1.1446285e-06
0.0097833432
1.1445455e-06
0.0097821987
1.1444625e-06
0.0097810544
1.1443795e-06
0.0097799101
1.1442965e-06
0.0097787658
1.1442134e-06
0.0097776217
1.1441303e-06
0.0097764777
1.1440472e-06
0.0097753337
1.1439641e-06
0.0097741898
1.143881e-06
0.009773046
1.1437978e-06
0.0097719023
1.1437147e-06
0.0097707587
1.1436316e-06
0.0097696151
1.1435484e-06
0.0097684717
1.1434653e-06
0.0097673283
1.1433821e-06
0.009766185
1.143299e-06
0.0097650418
1.1432159e-06
0.0097638986
1.1431328e-06
0.0097627556
1.1430497e-06
0.0097616126
1.1429666e-06
0.0097604697
1.1428834e-06
0.0097593269
1.1428003e-06
0.0097581842
1.1427173e-06
0.0097570416
1.1426342e-06
0.009755899
1.1425511e-06
0.0097547566
1.142468e-06
0.0097536142
1.142385e-06
0.0097524719
1.1423019e-06
0.0097513297
1.1422189e-06
0.0097501875
1.1421359e-06
0.0097490455
1.142053e-06
0.0097479035
1.14197e-06
0.0097467616
1.1418871e-06
0.0097456198
1.1418042e-06
0.0097444781
1.1417214e-06
0.0097433364
1.1416386e-06
0.0097421949
1.1415558e-06
0.0097410534
1.141473e-06
0.009739912
1.1413903e-06
0.0097387707
1.1413076e-06
0.0097376295
1.1412249e-06
0.0097364884
1.1411423e-06
0.0097353473
1.1410597e-06
0.0097342063
1.1409771e-06
0.0097330654
1.1408945e-06
0.0097319246
1.1408119e-06
0.0097307839
1.1407294e-06
0.0097296432
1.1406469e-06
0.0097285027
1.1405644e-06
0.0097273622
1.1404819e-06
0.0097262218
1.1403995e-06
0.0097250815
1.140317e-06
0.0097239412
1.1402346e-06
0.0097228011
1.1401522e-06
0.009721661
1.1400698e-06
0.009720521
1.1399875e-06
0.0097193811
1.1399051e-06
0.0097182413
1.1398227e-06
0.0097171016
1.1397404e-06
0.0097159619
1.139658e-06
0.0097148223
1.1395757e-06
0.0097136828
1.1394933e-06
0.0097125434
1.139411e-06
0.0097114041
1.1393286e-06
0.0097102648
1.1392462e-06
0.0097091257
1.1391638e-06
0.0097079866
1.1390814e-06
0.0097068476
1.1389989e-06
0.0097057087
1.1389165e-06
0.0097045699
1.138834e-06
0.0097034311
1.1387515e-06
0.0097022924
1.138669e-06
0.0097011538
1.1385865e-06
0.0097000153
1.138504e-06
0.0096988769
1.1384215e-06
0.0096977386
1.138339e-06
0.0096966003
1.1382564e-06
0.0096954622
1.1381739e-06
0.0096943241
1.1380913e-06
0.0096931861
1.1380087e-06
0.0096920481
1.1379261e-06
0.0096909103
1.1378435e-06
0.0096897725
1.1377609e-06
0.0096886348
1.1376783e-06
0.0096874972
1.1375957e-06
0.0096863597
1.137513e-06
0.0096852223
1.1374305e-06
0.009684085
1.1373479e-06
0.0096829477
1.1372653e-06
0.0096818105
1.1371828e-06
0.0096806734
1.1371003e-06
0.0096795364
1.1370178e-06
0.0096783995
1.1369353e-06
0.0096772626
1.1368529e-06
0.0096761258
1.1367704e-06
0.0096749891
1.136688e-06
0.0096738525
1.1366056e-06
0.009672716
1.1365233e-06
0.0096715796
1.1364409e-06
0.0096704432
1.1363585e-06
0.0096693069
1.1362761e-06
0.0096681707
1.1361936e-06
0.0096670346
1.1361112e-06
0.0096658986
1.1360287e-06
0.0096647627
1.1359462e-06
0.0096636268
1.1358637e-06
0.009662491
1.1357811e-06
0.0096613553
1.1356985e-06
0.0096602197
1.1356159e-06
0.0096590842
1.1355333e-06
0.0096579487
1.1354506e-06
0.0096568133
1.1353679e-06
0.0096556781
1.1352853e-06
0.0096545429
1.1352026e-06
0.0096534077
1.1351199e-06
0.0096522727
1.1350372e-06
0.0096511377
1.1349545e-06
0.0096500029
1.1348719e-06
0.0096488681
1.1347892e-06
0.0096477334
1.1347066e-06
0.0096465988
1.1346239e-06
0.0096454642
1.1345413e-06
0.0096443298
1.1344587e-06
0.0096431954
1.1343761e-06
0.0096420611
1.1342935e-06
0.0096409269
1.134211e-06
0.0096397927
1.1341285e-06
0.0096386587
1.134046e-06
0.0096375247
1.1339635e-06
0.0096363909
1.1338811e-06
0.0096352571
1.1337986e-06
0.0096341233
1.1337162e-06
0.0096329897
1.1336338e-06
0.0096318562
1.1335515e-06
0.0096307227
1.1334691e-06
0.0096295893
1.1333867e-06
0.009628456
1.1333044e-06
0.0096273228
1.133222e-06
0.0096261896
1.1331396e-06
0.0096250566
1.1330572e-06
0.0096239236
1.1329748e-06
0.0096227907
1.1328923e-06
0.0096216579
1.1328098e-06
0.0096205252
1.1327273e-06
0.0096193925
1.1326447e-06
0.00961826
1.1325621e-06
0.0096171275
1.1324795e-06
0.0096159951
1.1323968e-06
0.0096148628
1.1323142e-06
0.0096137305
1.1322315e-06
0.0096125984
1.1321488e-06
0.0096114663
1.1320661e-06
0.0096103343
1.1319834e-06
0.0096092024
1.1319007e-06
0.0096080706
1.131818e-06
0.0096069389
1.1317353e-06
0.0096058072
1.1316526e-06
0.0096046757
1.1315699e-06
0.0096035442
1.1314873e-06
0.0096024128
1.1314046e-06
0.0096012815
1.131322e-06
0.0096001502
1.1312393e-06
0.0095990191
1.1311567e-06
0.009597888
1.131074e-06
0.009596757
1.1309914e-06
0.0095956261
1.1309088e-06
0.0095944953
1.1308262e-06
0.0095933645
1.1307436e-06
0.0095922339
1.130661e-06
0.0095911033
1.1305785e-06
0.0095899728
1.130496e-06
0.0095888424
1.1304135e-06
0.009587712
1.130331e-06
0.0095865818
1.1302486e-06
0.0095854516
1.1301662e-06
0.0095843215
1.1300839e-06
0.0095831915
1.1300016e-06
0.0095820616
1.1299193e-06
0.0095809318
1.129837e-06
0.009579802
1.1297548e-06
0.0095786724
1.1296725e-06
0.0095775428
1.1295903e-06
0.0095764133
1.1295081e-06
0.0095752838
1.129426e-06
0.0095741545
1.1293438e-06
0.0095730252
1.1292616e-06
0.009571896
1.1291795e-06
0.0095707669
1.1290973e-06
0.0095696379
1.1290152e-06
0.009568509
1.128933e-06
0.0095673801
1.1288509e-06
0.0095662514
1.1287688e-06
0.0095651227
1.1286867e-06
0.0095639941
1.1286045e-06
0.0095628656
1.1285224e-06
0.0095617371
1.1284404e-06
0.0095606088
1.1283583e-06
0.0095594805
1.1282762e-06
0.0095583523
1.1281941e-06
0.0095572242
1.128112e-06
0.0095560962
1.1280299e-06
0.0095549682
1.1279478e-06
0.0095538403
1.1278657e-06
0.0095527126
1.1277836e-06
0.0095515849
1.1277014e-06
0.0095504572
1.1276193e-06
0.0095493297
1.1275371e-06
0.0095482022
1.127455e-06
0.0095470749
1.1273728e-06
0.0095459476
1.1272906e-06
0.0095448204
1.1272084e-06
0.0095436932
1.1271263e-06
0.0095425662
1.1270441e-06
0.0095414392
1.1269619e-06
0.0095403124
1.1268797e-06
0.0095391856
1.1267975e-06
0.0095380588
1.1267153e-06
0.0095369322
1.1266331e-06
0.0095358057
1.1265509e-06
0.0095346792
1.1264687e-06
0.0095335528
1.1263865e-06
0.0095324265
1.1263043e-06
0.0095313003
1.126222e-06
0.0095301741
1.1261398e-06
0.0095290481
1.1260575e-06
0.0095279221
1.1259752e-06
0.0095267962
1.125893e-06
0.0095256704
1.1258107e-06
0.0095245447
1.1257284e-06
0.009523419
1.1256461e-06
0.0095222935
1.1255638e-06
0.009521168
1.1254815e-06
0.0095200426
1.1253993e-06
0.0095189173
1.125317e-06
0.009517792
1.1252347e-06
0.0095166669
1.1251525e-06
0.0095155418
1.1250702e-06
0.0095144168
1.1249879e-06
0.0095132919
1.1249057e-06
0.0095121671
1.1248234e-06
0.0095110423
1.1247411e-06
0.0095099177
1.1246589e-06
0.0095087931
1.1245766e-06
0.0095076686
1.1244943e-06
0.0095065442
1.124412e-06
0.0095054199
1.1243297e-06
0.0095042956
1.1242474e-06
0.0095031715
1.1241651e-06
0.0095020474
1.1240828e-06
0.0095009234
1.1240005e-06
0.0094997995
1.1239182e-06
0.0094986756
1.123836e-06
0.0094975519
1.1237537e-06
0.0094964282
1.1236714e-06
0.0094953046
1.1235892e-06
0.0094941811
1.123507e-06
0.0094930577
1.1234247e-06
0.0094919343
1.1233425e-06
0.0094908111
1.1232603e-06
0.0094896879
1.1231781e-06
0.0094885648
1.1230958e-06
0.0094874418
1.1230136e-06
0.0094863189
1.1229314e-06
0.009485196
1.1228491e-06
0.0094840732
1.1227669e-06
0.0094829506
1.1226847e-06
0.009481828
1.1226024e-06
0.0094807054
1.1225202e-06
0.009479583
1.1224379e-06
0.0094784606
1.1223557e-06
0.0094773384
1.1222735e-06
0.0094762162
1.1221913e-06
0.0094750941
1.122109e-06
0.009473972
1.1220268e-06
0.0094728501
1.1219447e-06
0.0094717282
1.1218625e-06
0.0094706065
1.1217803e-06
0.0094694848
1.1216982e-06
0.0094683631
1.121616e-06
0.0094672416
1.1215339e-06
0.0094661202
1.1214517e-06
0.0094649988
1.1213695e-06
0.0094638775
1.1212874e-06
0.0094627563
1.1212052e-06
0.0094616352
1.121123e-06
0.0094605141
1.1210409e-06
0.0094593932
1.1209587e-06
0.0094582723
1.1208765e-06
0.0094571515
1.1207943e-06
0.0094560308
1.1207121e-06
0.0094549102
1.12063e-06
0.0094537896
1.1205478e-06
0.0094526691
1.1204657e-06
0.0094515488
1.1203836e-06
0.0094504285
1.1203014e-06
0.0094493082
1.1202193e-06
0.0094481881
1.1201372e-06
0.009447068
1.1200551e-06
0.0094459481
1.119973e-06
0.0094448282
1.119891e-06
0.0094437084
1.1198089e-06
0.0094425886
1.1197268e-06
0.009441469
1.1196447e-06
0.0094403494
1.1195626e-06
0.00943923
1.1194805e-06
0.0094381106
1.1193984e-06
0.0094369912
1.1193163e-06
0.009435872
1.1192342e-06
0.0094347529
1.1191521e-06
0.0094336338
1.11907e-06
0.0094325148
1.118988e-06
0.0094313959
1.1189059e-06
0.0094302771
1.1188239e-06
0.0094291583
1.1187418e-06
0.0094280397
1.1186598e-06
0.0094269211
1.1185778e-06
0.0094258026
1.1184958e-06
0.0094246842
1.1184138e-06
0.0094235659
1.1183318e-06
0.0094224476
1.1182499e-06
0.0094213294
1.1181679e-06
0.0094202113
1.1180859e-06
0.0094190933
1.118004e-06
0.0094179754
1.117922e-06
0.0094168576
1.1178401e-06
0.0094157398
1.1177581e-06
0.0094146221
1.1176762e-06
0.0094135046
1.1175942e-06
0.009412387
1.1175123e-06
0.0094112696
1.1174304e-06
0.0094101523
1.1173485e-06
0.009409035
1.1172666e-06
0.0094079178
1.1171847e-06
0.0094068007
1.1171028e-06
0.0094056837
1.117021e-06
0.0094045667
1.1169391e-06
0.0094034499
1.1168573e-06
0.0094023331
1.1167755e-06
0.0094012164
1.1166937e-06
0.0094000998
1.1166119e-06
0.0093989833
1.1165301e-06
0.0093978668
1.1164483e-06
0.0093967505
1.1163666e-06
0.0093956342
1.1162848e-06
0.009394518
1.116203e-06
0.0093934019
1.1161212e-06
0.0093922858
1.1160394e-06
0.0093911699
1.1159577e-06
0.009390054
1.1158759e-06
0.0093889382
1.1157941e-06
0.0093878225
1.1157124e-06
0.0093867068
1.1156306e-06
0.0093855913
1.1155489e-06
0.0093844758
1.1154672e-06
0.0093833604
1.1153854e-06
0.0093822451
1.1153037e-06
0.0093811299
1.115222e-06
0.0093800148
1.1151403e-06
0.0093788997
1.1150586e-06
0.0093777847
1.1149769e-06
0.0093766698
1.1148951e-06
0.009375555
1.1148134e-06
0.0093744403
1.1147316e-06
0.0093733257
1.1146499e-06
0.0093722111
1.1145681e-06
0.0093710966
1.1144863e-06
0.0093699822
1.1144045e-06
0.0093688679
1.1143227e-06
0.0093677536
1.1142409e-06
0.0093666395
1.1141591e-06
0.0093655254
1.1140773e-06
0.0093644114
1.1139955e-06
0.0093632975
1.1139137e-06
0.0093621837
1.1138319e-06
0.0093610699
1.1137501e-06
0.0093599562
1.1136684e-06
0.0093588426
1.1135866e-06
0.0093577291
1.1135048e-06
0.0093566157
1.113423e-06
0.0093555024
1.1133412e-06
0.0093543891
1.1132594e-06
0.0093532759
1.1131776e-06
0.0093521628
1.1130958e-06
0.0093510498
1.113014e-06
0.0093499369
1.1129321e-06
0.009348824
1.1128503e-06
0.0093477113
1.1127684e-06
0.0093465986
1.1126866e-06
0.009345486
1.1126047e-06
0.0093443735
1.1125229e-06
0.009343261
1.1124411e-06
0.0093421487
1.1123593e-06
0.0093410364
1.1122775e-06
0.0093399242
1.1121957e-06
0.0093388121
1.1121139e-06
0.0093377
1.1120321e-06
0.0093365881
1.1119503e-06
0.0093354762
1.1118685e-06
0.0093343644
1.1117867e-06
0.0093332527
1.1117049e-06
0.0093321411
1.111623e-06
0.0093310296
1.1115411e-06
0.0093299181
1.1114592e-06
0.0093288067
1.1113772e-06
0.0093276954
1.1112952e-06
0.0093265842
1.1112132e-06
0.0093254731
1.1111311e-06
0.009324362
1.111049e-06
0.0093232511
1.1109669e-06
0.0093221402
1.1108848e-06
0.0093210294
1.1108027e-06
0.0093199187
1.1107206e-06
0.009318808
1.1106386e-06
0.0093176975
1.1105566e-06
0.009316587
1.1104746e-06
0.0093154766
1.1103926e-06
0.0093143663
1.1103107e-06
0.0093132561
1.1102288e-06
0.0093121459
1.110147e-06
0.0093110358
1.1100652e-06
0.0093099259
1.1099834e-06
0.009308816
1.1099016e-06
0.0093077061
1.1098198e-06
0.0093065964
1.109738e-06
0.0093054867
1.1096562e-06
0.0093043772
1.1095744e-06
0.0093032677
1.1094925e-06
0.0093021583
1.1094106e-06
0.0093010489
1.1093287e-06
0.0092999397
1.1092466e-06
0.0092988305
1.1091645e-06
0.0092977214
1.1090823e-06
0.0092966124
1.109e-06
0.0092955035
1.1089177e-06
0.0092943947
1.1088352e-06
0.0092932859
1.1087527e-06
0.0092921773
1.1086701e-06
0.0092910687
1.1085874e-06
0.0092899602
1.1085047e-06
0.0092888518
1.1084219e-06
0.0092877434
1.1083391e-06
0.0092866352
1.1082563e-06
0.009285527
1.1081734e-06
0.0092844189
1.1080906e-06
0.0092833109
1.1080077e-06
0.009282203
1.1079249e-06
0.0092810951
1.107842e-06
0.0092799874
1.1077592e-06
0.0092788797
1.1076765e-06
0.0092777721
1.1075938e-06
0.0092766646
1.1075111e-06
0.0092755572
1.1074284e-06
0.0092744498
1.1073458e-06
0.0092733425
1.1072633e-06
0.0092722354
1.1071808e-06
0.0092711283
1.1070984e-06
0.0092700212
1.107016e-06
0.0092689143
1.1069337e-06
0.0092678075
1.1068515e-06
0.0092667007
1.1067693e-06
0.009265594
1.1066873e-06
0.0092644874
1.1066053e-06
0.0092633809
1.1065234e-06
0.0092622744
1.1064417e-06
0.0092611681
1.1063601e-06
0.0092600618
1.1062785e-06
0.0092589556
1.1061971e-06
0.0092578495
1.1061158e-06
0.0092567435
1.1060346e-06
0.0092556375
1.1059535e-06
0.0092545316
1.1058724e-06
0.0092534258
1.1057915e-06
0.0092523201
1.1057106e-06
0.0092512145
1.1056298e-06
0.009250109
1.105549e-06
0.0092490035
1.1054683e-06
0.0092478981
1.1053876e-06
0.0092467928
1.1053069e-06
0.0092456876
1.1052263e-06
0.0092445824
1.1051456e-06
0.0092434774
1.105065e-06
0.0092423724
1.1049843e-06
0.0092412675
1.1049037e-06
0.0092401627
1.104823e-06
0.0092390579
1.1047423e-06
0.0092379533
1.1046616e-06
0.0092368487
1.1045809e-06
0.0092357442
1.1045002e-06
0.0092346398
1.1044194e-06
0.0092335354
1.1043386e-06
0.0092324312
1.1042578e-06
0.009231327
1.1041769e-06
0.0092302229
1.104096e-06
0.0092291189
1.104015e-06
0.0092280149
1.103934e-06
0.0092269111
1.103853e-06
0.0092258073
1.1037719e-06
0.0092247036
1.1036907e-06
0.0092236
1.1036095e-06
0.0092224965
1.1035283e-06
0.009221393
1.103447e-06
0.0092202897
1.1033657e-06
0.0092191864
1.1032843e-06
0.0092180832
1.1032029e-06
0.0092169801
1.1031215e-06
0.009215877
1.1030401e-06
0.0092147741
1.1029586e-06
0.0092136712
1.1028771e-06
0.0092125684
1.1027955e-06
0.0092114657
1.102714e-06
0.009210363
1.1026324e-06
0.0092092605
1.1025508e-06
0.009208158
1.1024691e-06
0.0092070556
1.1023875e-06
0.0092059533
1.1023058e-06
0.0092048511
1.1022241e-06
0.0092037489
1.1021423e-06
0.0092026469
1.1020606e-06
0.0092015449
1.1019789e-06
0.009200443
1.1018971e-06
0.0091993412
1.1018153e-06
0.0091982395
1.1017336e-06
0.0091971378
1.1016518e-06
0.0091960362
1.1015701e-06
0.0091949348
1.1014883e-06
0.0091938333
1.1014066e-06
0.009192732
1.1013249e-06
0.0091916308
1.1012432e-06
0.0091905296
1.1011615e-06
0.0091894285
1.1010797e-06
0.0091883275
1.100998e-06
0.0091872266
1.1009164e-06
0.0091861258
1.1008347e-06
0.009185025
1.100753e-06
0.0091839244
1.1006713e-06
0.0091828238
1.1005896e-06
0.0091817233
1.1005079e-06
0.0091806228
1.1004262e-06
0.0091795225
1.1003445e-06
0.0091784222
1.1002629e-06
0.009177322
1.1001812e-06
0.0091762219
1.1000996e-06
0.0091751219
1.1000179e-06
0.009174022
1.0999363e-06
0.0091729221
1.0998547e-06
0.0091718224
1.0997731e-06
0.0091707227
1.0996916e-06
0.0091696231
1.09961e-06
0.0091685235
1.0995285e-06
0.0091674241
1.099447e-06
0.0091663247
1.0993654e-06
0.0091652254
1.0992839e-06
0.0091641262
1.0992024e-06
0.0091630271
1.0991209e-06
0.0091619281
1.0990394e-06
0.0091608291
1.0989579e-06
0.0091597302
1.0988764e-06
0.0091586314
1.0987948e-06
0.0091575327
1.0987133e-06
0.0091564341
1.0986318e-06
0.0091553356
1.0985503e-06
0.0091542371
1.0984688e-06
0.0091531387
1.0983873e-06
0.0091520404
1.0983058e-06
0.0091509422
1.0982244e-06
0.009149844
1.0981429e-06
0.009148746
1.0980615e-06
0.009147648
1.0979801e-06
0.0091465501
1.0978987e-06
0.0091454523
1.0978173e-06
0.0091443545
1.0977359e-06
0.0091432569
1.0976545e-06
0.0091421593
1.0975731e-06
0.0091410618
1.0974916e-06
0.0091399644
1.0974102e-06
0.0091388671
1.0973288e-06
0.0091377698
1.0972474e-06
0.0091366727
1.097166e-06
0.0091355756
1.0970845e-06
0.0091344786
1.0970031e-06
0.0091333817
1.0969217e-06
0.0091322848
1.0968402e-06
0.0091311881
1.0967588e-06
0.0091300914
1.0966774e-06
0.0091289948
1.096596e-06
0.0091278983
1.0965146e-06
0.0091268018
1.0964333e-06
0.0091257055
1.0963519e-06
0.0091246092
1.0962706e-06
0.009123513
1.0961892e-06
0.0091224169
1.0961079e-06
0.0091213209
1.0960265e-06
0.0091202249
1.0959452e-06
0.0091191291
1.0958638e-06
0.0091180333
1.0957824e-06
0.0091169376
1.0957011e-06
0.009115842
1.0956197e-06
0.0091147464
1.0955383e-06
0.009113651
1.0954569e-06
0.0091125556
1.0953755e-06
0.0091114603
1.0952942e-06
0.0091103651
1.0952128e-06
0.00910927
1.0951314e-06
0.0091081749
1.09505e-06
0.0091070799
1.0949687e-06
0.0091059851
1.0948873e-06
0.0091048903
1.094806e-06
0.0091037955
1.0947247e-06
0.0091027009
1.0946434e-06
0.0091016063
1.094562e-06
0.0091005118
1.0944807e-06
0.0090994174
1.0943994e-06
0.0090983231
1.0943181e-06
0.0090972289
1.0942368e-06
0.0090961347
1.0941555e-06
0.0090950407
1.0940741e-06
0.0090939467
1.0939928e-06
0.0090928528
1.0939114e-06
0.0090917589
1.0938301e-06
0.0090906652
1.0937487e-06
0.0090895715
1.0936673e-06
0.0090884779
1.093586e-06
0.0090873844
1.0935046e-06
0.009086291
1.0934233e-06
0.0090851977
1.093342e-06
0.0090841044
1.0932606e-06
0.0090830112
1.0931793e-06
0.0090819181
1.093098e-06
0.0090808251
1.0930167e-06
0.0090797322
1.0929354e-06
0.0090786393
1.0928541e-06
0.0090775465
1.0927728e-06
0.0090764538
1.0926915e-06
0.0090753612
1.0926102e-06
0.0090742687
1.0925288e-06
0.0090731763
1.0924475e-06
0.0090720839
1.0923661e-06
0.0090709916
1.0922848e-06
0.0090698994
1.0922034e-06
0.0090688073
1.0921221e-06
0.0090677152
1.0920407e-06
0.0090666233
1.0919593e-06
0.0090655314
1.091878e-06
0.0090644396
1.0917966e-06
0.0090633479
1.0917153e-06
0.0090622563
1.0916339e-06
0.0090611647
1.0915526e-06
0.0090600732
1.0914713e-06
0.0090589818
1.09139e-06
0.0090578905
1.0913086e-06
0.0090567993
1.0912273e-06
0.0090557082
1.091146e-06
0.0090546171
1.0910647e-06
0.0090535261
1.0909833e-06
0.0090524352
1.090902e-06
0.0090513444
1.0908206e-06
0.0090502536
1.0907392e-06
0.009049163
1.0906579e-06
0.0090480724
1.0905765e-06
0.0090469819
1.0904951e-06
0.0090458915
1.0904137e-06
0.0090448012
1.0903323e-06
0.0090437109
1.0902509e-06
0.0090426208
1.0901695e-06
0.0090415307
1.0900881e-06
0.0090404407
1.0900068e-06
0.0090393507
1.0899254e-06
0.0090382609
1.0898441e-06
0.0090371711
1.0897627e-06
0.0090360814
1.0896814e-06
0.0090349918
1.0896e-06
0.0090339023
1.0895187e-06
0.0090328129
1.0894373e-06
0.0090317235
1.0893559e-06
0.0090306343
1.0892746e-06
0.0090295451
1.0891932e-06
0.009028456
1.0891118e-06
0.0090273669
1.0890304e-06
0.009026278
1.088949e-06
0.0090251891
1.0888676e-06
0.0090241003
1.0887862e-06
0.0090230116
1.0887048e-06
0.009021923
1.0886234e-06
0.0090208344
1.088542e-06
0.009019746
1.0884606e-06
0.0090186576
1.0883793e-06
0.0090175693
1.0882979e-06
0.0090164811
1.0882166e-06
0.009015393
1.0881352e-06
0.0090143049
1.0880539e-06
0.0090132169
1.0879726e-06
0.009012129
1.0878913e-06
0.0090110412
1.08781e-06
0.0090099535
1.0877287e-06
0.0090088659
1.0876473e-06
0.0090077783
1.087566e-06
0.0090066908
1.0874847e-06
0.0090056034
1.0874034e-06
0.0090045161
1.087322e-06
0.0090034288
1.0872407e-06
0.0090023417
1.0871594e-06
0.0090012546
1.0870781e-06
0.0090001676
1.0869968e-06
0.0089990807
1.0869155e-06
0.0089979939
1.0868343e-06
0.0089969071
1.0867531e-06
0.0089958204
1.0866719e-06
0.0089947338
1.0865907e-06
0.0089936473
1.0865095e-06
0.0089925609
1.0864284e-06
0.0089914746
1.0863473e-06
0.0089903883
1.0862662e-06
0.0089893021
1.0861851e-06
0.008988216
1.086104e-06
0.00898713
1.086023e-06
0.008986044
1.085942e-06
0.0089849582
1.085861e-06
0.0089838724
1.08578e-06
0.0089827867
1.0856991e-06
0.0089817011
1.0856182e-06
0.0089806155
1.0855374e-06
0.0089795301
1.0854566e-06
0.0089784447
1.0853758e-06
0.0089773594
1.0852952e-06
0.0089762742
1.0852146e-06
0.0089751891
1.0851341e-06
0.008974104
1.0850537e-06
0.008973019
1.0849733e-06
0.0089719341
1.0848931e-06
0.0089708493
1.084813e-06
0.0089697646
1.084733e-06
0.0089686799
1.0846532e-06
0.0089675954
1.0845735e-06
0.0089665109
1.084494e-06
0.0089654265
1.0844148e-06
0.0089643421
1.0843358e-06
0.0089632579
1.0842571e-06
0.0089621737
1.0841789e-06
0.0089610896
1.0841011e-06
0.0089600056
1.0840239e-06
0.0089589216
1.0839475e-06
0.0089578377
1.083872e-06
0.0089567539
1.0837978e-06
0.0089556702
1.083725e-06
0.0089545866
1.0836542e-06
0.008953503
1.0835858e-06
0.0089524195
1.0835205e-06
0.008951336
1.083459e-06
0.0089502526
1.0834025e-06
0.0089491692
1.0833521e-06
0.0089480859
1.0833096e-06
0.0089470027
1.0832769e-06
0.0089459194
1.0832564e-06
0.0089448362
1.0832515e-06
0.0089437529
1.0832657e-06
0.0089426696
1.083304e-06
0.0089415862
1.0833722e-06
0.0089405027
1.0834772e-06
0.0089394191
1.0836279e-06
0.0089383353
1.0838348e-06
0.0089372512
1.0841107e-06
0.0089361667
1.0844708e-06
0.0089350818
1.0849335e-06
0.0089339962
1.0855208e-06
0.00893291
1.0862586e-06
0.0089318228
1.0871773e-06
0.0089307345
1.0883126e-06
0.0089296448
1.0897056e-06
0.0089285534
1.0914036e-06
0.0089274599
1.0934598e-06
0.008926364
1.0959335e-06
0.0089252651
1.0988892e-06
0.0089241627
1.1023952e-06
0.0089230562
1.1065206e-06
0.0089219448
1.1113305e-06
0.008920828
1.1168796e-06
0.0089197048
1.1232008e-06
0.0089185745
1.1302911e-06
0.0089174364
1.1380941e-06
0.0089162899
1.1464677e-06
0.0089151348
1.1550962e-06
0.0089139713
1.1634612e-06
0.0089127997
1.1716259e-06
0.0089116193
1.1804502e-06
0.0089104392
1.1800561e-06
1.1406728e-06
0.014571054
0.00018447463
0.014339418
0.00045896192
0.014015925
0.00064636275
0.01363965
0.00075592184
0.013241527
0.00080256536
0.012844534
0.00080251518
0.012464322
0.00077033587
0.012110602
0.00071791306
0.011788616
0.00065434382
0.011500416
0.0005862147
0.011245885
0.00051804578
0.011023513
0.00045275972
0.010830972
0.0003921002
0.010665509
0.00033697344
0.010524229
0.00028771217
0.010404266
0.00024427212
0.010302898
0.00020637387
0.010217609
0.00017360269
0.01014612
0.00014547706
0.010086402
0.00012149438
0.010036665
0.00010116045
0.0099953507
8.4007482e-05
0.0099611097
6.9604233e-05
0.009932785
5.7560818e-05
0.0099093894
4.7529962e-05
0.0098900851
3.9206004e-05
0.0098741651
3.2322514e-05
0.0098610351
2.6649157e-05
0.0098501979
2.1988194e-05
0.009841239
1.8170911e-05
0.0098338141
1.5054144e-05
0.0098276382
1.2517004e-05
0.0098224763
1.0457872e-05
0.0098181351
8.7916812e-06
0.0098144562
7.447498e-06
0.00981131
6.366388e-06
0.0098085912
5.4995575e-06
0.0098062141
4.8067428e-06
0.0098041091
4.2548251e-06
0.0098022204
3.8166483e-06
0.0098005027
3.470013e-06
0.00979892
3.1968262e-06
0.0097974431
2.982386e-06
0.0097960491
2.8147809e-06
0.0097947195
2.6843895e-06
0.0097934399
2.583463e-06
0.0097921986
2.5057799e-06
0.0097909868
2.4463607e-06
0.0097897974
2.4012325e-06
0.0097886248
2.3672359e-06
0.0097874648
2.3418676e-06
0.0097863141
2.3231505e-06
0.0097851702
2.3095298e-06
0.0097840312
2.2997875e-06
0.0097828955
2.2929735e-06
0.0097817622
2.2883503e-06
0.0097806303
2.2853485e-06
0.0097794994
2.2835309e-06
0.009778369
2.2825638e-06
0.0097772388
2.2821949e-06
0.0097761086
2.2822345e-06
0.0097749783
2.2825416e-06
0.0097738477
2.2830127e-06
0.0097727169
2.2835729e-06
0.0097715858
2.2841691e-06
0.0097704544
2.2847643e-06
0.0097693227
2.2853339e-06
0.0097681908
2.2858624e-06
0.0097670586
2.2863404e-06
0.0097659262
2.2867638e-06
0.0097647937
2.2871312e-06
0.009763661
2.2874439e-06
0.0097625282
2.2877043e-06
0.0097613952
2.287916e-06
0.0097602622
2.2880829e-06
0.0097591291
2.288209e-06
0.009757996
2.2882985e-06
0.0097568629
2.2883553e-06
0.0097557297
2.2883831e-06
0.0097545966
2.2883854e-06
0.0097534634
2.2883652e-06
0.0097523303
2.2883255e-06
0.0097511972
2.2882687e-06
0.0097500642
2.2881971e-06
0.0097489311
2.2881127e-06
0.0097477982
2.2880172e-06
0.0097466653
2.2879121e-06
0.0097455324
2.2877988e-06
0.0097443996
2.2876785e-06
0.0097432669
2.287552e-06
0.0097421342
2.2874203e-06
0.0097410016
2.287284e-06
0.009739869
2.287144e-06
0.0097387366
2.2870006e-06
0.0097376042
2.2868543e-06
0.0097364719
2.2867056e-06
0.0097353396
2.2865548e-06
0.0097342075
2.2864022e-06