/*--------------------------------*- C++ -*----------------------------------*\
  =========                 |
  \\      /  F ield         | OpenFOAM: The Open Source CFD Toolbox
   \\    /   O peration     | Website:  https://openfoam.org
    \\  /    A nd           | Version:  6
     \\/     M anipulation  |
\*---------------------------------------------------------------------------*/
FoamFile
{
    version     2.0;
    format      ascii;
    class       volVectorField;
    location    "10";
    object      U;
}
// * * * * * * * * * * * * * * * * * * * * * * * * * * * * * * * * * * * * * //

dimensions      [0 1 -1 0 0 0 0];

internalField   nonuniform List<vector> 
10000
(
(1.491415 -7.5349247e-21 0.0046299527)
(1.4784176 8.842242e-21 0.01136545)
(1.4503325 0 0.016150716)
(1.4141975 -8.805712e-21 0.019018225)
(1.3743378 0 0.020287205)
(1.3334099 0 0.02036178)
(1.2933514 0 0.01960312)
(1.2554857 -8.7526963e-21 0.018309503)
(1.2206053 0 0.0167142)
(1.1891027 0 0.014989002)
(1.1610883 0 0.013253306)
(1.1364841 -8.7120896e-21 0.011585182)
(1.1150943 -8.7028106e-21 0.010031784)
(1.0966562 0 0.0086180832)
(1.0808764 0 0.0073537554)
(1.0674548 0 0.0062383618)
(1.0561006 0 0.0052651256)
(1.046541 -8.658325e-21 0.0044235997)
(1.0385264 -8.6495903e-21 0.0037015021)
(1.0318328 0 0.0030859423)
(1.0262619 0 0.0025642107)
(1.0216399 0 0.0021242615)
(1.0178162 -8.6147253e-21 0.0017549852)
(1.014661 0 0.0014463374)
(1.0120635 0 0.0011893735)
(1.0099294 0 0.00097622396)
(1.0081791 0 0.00080003282)
(1.0067455 0 0.00065487592)
(1.0055724 0 0.00053567032)
(1.0046128 -8.5535151e-21 0.00043808158)
(1.0038278 0 0.00035843361)
(1.0031852 0 0.00029362396)
(1.0026581 0 0.00024104607)
(1.0022247 0 0.00019851898)
(1.0018669 -8.5096113e-21 0.00016422495)
(1.00157 0 0.00013665444)
(1.0013221 0 0.0001145582)
(1.0011132 0 9.6905825e-05)
(1.0009355 0 8.2850107e-05)
(1.0007827 -8.4656286e-21 7.1696658e-05)
(1.0006495 0 6.2878064e-05)
(1.0005318 0 5.5932063e-05)
(1.0004263 0 5.0483175e-05)
(1.0003303 0 4.6227316e-05)
(1.0002417 0 4.2918956e-05)
(1.000159 0 4.0360438e-05)
(1.0000806 0 3.8393131e-05)
(1.0000057 0 3.6890123e-05)
(0.99993338 0 3.5750201e-05)
(0.999863 0 3.4892918e-05)
(0.99979409 0 3.4254555e-05)
(0.99972626 -8.3599612e-21 3.3784824e-05)
(0.99965923 0 3.344419e-05)
(0.99959276 0 3.3201702e-05)
(0.99952669 0 3.3033234e-05)
(0.99946089 0 3.2920071e-05)
(0.99939527 -8.3159205e-21 3.2847771e-05)
(0.99932976 0 3.2805257e-05)
(0.9992643 0 3.2784085e-05)
(0.99919887 0 3.2777869e-05)
(0.99913344 0 3.2781821e-05)
(0.99906798 -8.2718778e-21 3.2792387e-05)
(0.9990025 0 3.280696e-05)
(0.99893699 0 3.2823659e-05)
(0.99887143 0 3.2841152e-05)
(0.99880584 0 3.285852e-05)
(0.99874021 0 3.2875151e-05)
(0.99867455 0 3.289066e-05)
(0.99860885 -8.2102163e-21 3.2904827e-05)
(0.99854313 0 3.2917549e-05)
(0.99847737 0 3.2928807e-05)
(0.9984116 0 3.2938635e-05)
(0.9983458 0 3.2947104e-05)
(0.99827998 -8.1661714e-21 3.2954307e-05)
(0.99821415 0 3.2960347e-05)
(0.9981483 0 3.2965334e-05)
(0.99808244 0 3.2969373e-05)
(0.99801657 0 3.2972569e-05)
(0.99795069 -8.1221257e-21 3.2975017e-05)
(0.9978848 0 3.2976806e-05)
(0.99781891 0 3.2978018e-05)
(0.99775301 0 3.2978726e-05)
(0.99768711 0 3.2978996e-05)
(0.9976212 -8.0780793e-21 3.2978884e-05)
(0.9975553 0 3.2978443e-05)
(0.99748939 0 3.2977717e-05)
(0.99742347 0 3.2976745e-05)
(0.99735756 0 3.2975562e-05)
(0.99729165 0 3.2974195e-05)
(0.99722573 0 3.2972672e-05)
(0.99715982 -8.0164131e-21 3.2971014e-05)
(0.9970939 0 3.296924e-05)
(0.99702799 0 3.2967367e-05)
(0.99696207 0 3.2965407e-05)
(0.99689616 0 3.2963373e-05)
(0.99683025 -7.972365e-21 3.2961276e-05)
(0.99676434 0 3.2959123e-05)
(0.99669843 0 3.2956923e-05)
(0.99663252 0 3.2954681e-05)
(0.99656661 0 3.2952404e-05)
(0.99650071 -7.9283161e-21 3.2950095e-05)
(0.9964348 0 3.2947759e-05)
(0.9963689 0 3.2945398e-05)
(0.99630299 0 3.2943017e-05)
(0.99623709 0 3.2940617e-05)
(0.99617119 0 3.29382e-05)
(0.9961053 0 3.2935769e-05)
(0.9960394 0 3.2933325e-05)
(0.9959735 0 3.293087e-05)
(0.99590761 0 3.2928404e-05)
(0.99584172 0 3.292593e-05)
(0.99577583 0 3.2923448e-05)
(0.99570994 -7.8225961e-21 3.2920959e-05)
(0.99564406 0 3.2918464e-05)
(0.99557817 0 3.2915965e-05)
(0.99551229 0 3.2913462e-05)
(0.99544641 0 3.2910955e-05)
(0.99538053 -7.7785449e-21 3.2908446e-05)
(0.99531465 0 3.2905935e-05)
(0.99524877 0 3.2903423e-05)
(0.9951829 0 3.290091e-05)
(0.99511702 0 3.2898396e-05)
(0.99505115 -7.734493e-21 3.2895883e-05)
(0.99498528 0 3.289337e-05)
(0.99491942 0 3.2890857e-05)
(0.99485355 0 3.2888345e-05)
(0.99478768 0 3.2885834e-05)
(0.99472182 0 3.2883322e-05)
(0.99465596 0 3.2880811e-05)
(0.9945901 -7.6728193e-21 3.28783e-05)
(0.99452424 0 3.2875789e-05)
(0.99445839 0 3.2873277e-05)
(0.99439253 0 3.2870764e-05)
(0.99432668 0 3.2868248e-05)
(0.99426083 -7.6287658e-21 3.2865731e-05)
(0.99419498 0 3.2863211e-05)
(0.99412913 0 3.2860688e-05)
(0.99406329 0 3.2858162e-05)
(0.99399745 0 3.2855631e-05)
(0.9939316 -7.5847117e-21 3.2853096e-05)
(0.99386576 0 3.2850556e-05)
(0.99379993 0 3.2848011e-05)
(0.99373409 0 3.2845461e-05)
(0.99366825 0 3.2842905e-05)
(0.99360242 0 3.2840345e-05)
(0.99353659 0 3.2837779e-05)
(0.99347076 0 3.2835208e-05)
(0.99340493 0 3.2832633e-05)
(0.99333911 0 3.2830053e-05)
(0.99327328 0 3.282747e-05)
(0.99320746 0 3.2824883e-05)
(0.99314164 -7.4789793e-21 3.2822293e-05)
(0.99307582 0 3.2819701e-05)
(0.99301001 0 3.2817107e-05)
(0.99294419 0 3.2814513e-05)
(0.99287838 0 3.2811918e-05)
(0.99281257 -7.434923e-21 3.2809324e-05)
(0.99274676 0 3.2806731e-05)
(0.99268095 0 3.280414e-05)
(0.99261515 0 3.2801551e-05)
(0.99254934 0 3.2798965e-05)
(0.99248354 0 3.2796384e-05)
(0.99241774 0 3.2793806e-05)
(0.99235195 0 3.2791233e-05)
(0.99228615 0 3.2788665e-05)
(0.99222036 0 3.2786102e-05)
(0.99215456 0 3.2783545e-05)
(0.99208877 0 3.2780993e-05)
(0.99202299 0 3.2778447e-05)
(0.9919572 0 3.2775906e-05)
(0.99189141 0 3.2773371e-05)
(0.99182563 0 3.2770842e-05)
(0.99175985 0 3.2768318e-05)
(0.99169407 0 3.2765799e-05)
(0.99162829 0 3.2763285e-05)
(0.99156252 0 3.2760775e-05)
(0.99149674 7.258692e-21 3.275827e-05)
(0.99143097 0 3.2755769e-05)
(0.9913652 0 3.2753271e-05)
(0.99129943 0 3.2750777e-05)
(0.99123366 0 3.2748287e-05)
(0.99116789 7.2146328e-21 3.2745798e-05)
(0.99110213 0 3.2743313e-05)
(0.99103637 0 3.2740829e-05)
(0.99097061 0 3.2738347e-05)
(0.99090485 0 3.2735867e-05)
(0.99083909 7.170573e-21 3.2733388e-05)
(0.99077333 0 3.273091e-05)
(0.99070758 0 3.2728432e-05)
(0.99064183 0 3.2725954e-05)
(0.99057607 -7.1353248e-21 3.2723477e-05)
(0.99051033 0 3.2720999e-05)
(0.99044458 0 3.271852e-05)
(0.99037883 0 3.271604e-05)
(0.99031309 0 3.271356e-05)
(0.99024734 -7.091264e-21 3.2711078e-05)
(0.9901816 0 3.2708595e-05)
(0.99011586 0 3.270611e-05)
(0.99005013 7.0648272e-21 3.2703624e-05)
(0.98998439 0 3.2701136e-05)
(0.98991866 -7.0472026e-21 3.2698646e-05)
(0.98985292 7.0383903e-21 3.2696154e-05)
(0.98978719 0 3.2693661e-05)
(0.98972146 7.0207656e-21 3.2691165e-05)
(0.98965574 0 3.2688668e-05)
(0.98959001 0 3.2686169e-05)
(0.98952429 6.9943283e-21 3.2683668e-05)
(0.98945856 0 3.2681166e-05)
(0.98939284 6.9767034e-21 3.2678661e-05)
(0.98932712 0 3.2676154e-05)
(0.98926141 0 3.2673645e-05)
(0.98919569 6.9502658e-21 3.2671134e-05)
(0.98912998 -6.9414532e-21 3.2668621e-05)
(0.98906427 0 3.2666106e-05)
(0.98899856 6.923828e-21 3.2663589e-05)
(0.98893285 0 3.266107e-05)
(0.98886714 0 3.2658549e-05)
(0.98880144 -6.89739e-21 3.2656026e-05)
(0.98873573 0 3.2653502e-05)
(0.98867003 6.8797646e-21 3.2650977e-05)
(0.98860433 0 3.264845e-05)
(0.98853863 0 3.2645922e-05)
(0.98847294 -6.8533263e-21 3.2643394e-05)
(0.98840724 6.8445135e-21 3.2640865e-05)
(0.98834155 -6.8357007e-21 3.2638336e-05)
(0.98827586 0 3.2635807e-05)
(0.98821017 6.818075e-21 3.2633277e-05)
(0.98814448 0 3.2630748e-05)
(0.9880788 6.8004492e-21 3.2628218e-05)
(0.98801311 0 3.2625689e-05)
(0.98794743 0 3.262316e-05)
(0.98788175 6.7740103e-21 3.2620631e-05)
(0.98781607 0 3.2618103e-05)
(0.98775039 6.7563843e-21 3.2615574e-05)
(0.98768472 0 3.2613046e-05)
(0.98761905 0 3.2610518e-05)
(0.98755337 6.7299452e-21 3.260799e-05)
(0.98748771 0 3.2605462e-05)
(0.98742204 0 3.2602935e-05)
(0.98735637 0 3.2600408e-05)
(0.98729071 0 3.2597882e-05)
(0.98722504 0 3.2595357e-05)
(0.98715938 0 3.2592833e-05)
(0.98709372 0 3.259031e-05)
(0.98702807 0 3.2587789e-05)
(0.98696241 0 3.2585269e-05)
(0.98689676 0 3.258275e-05)
(0.9868311 0 3.2580233e-05)
(0.98676545 6.6241869e-21 3.2577718e-05)
(0.98669981 -6.6153736e-21 3.2575205e-05)
(0.98663416 0 3.2572693e-05)
(0.98656851 0 3.2570183e-05)
(0.98650287 0 3.2567674e-05)
(0.98643723 6.5801201e-21 3.2565167e-05)
(0.98637159 6.5713067e-21 3.2562661e-05)
(0.98630595 0 3.2560156e-05)
(0.98624031 0 3.2557653e-05)
(0.98617468 0 3.2555151e-05)
(0.98610905 6.5360528e-21 3.255265e-05)
(0.98604341 6.5272393e-21 3.255015e-05)
(0.98597778 0 3.2547651e-05)
(0.98591216 0 3.2545153e-05)
(0.98584653 0 3.2542657e-05)
(0.98578091 0 3.2540161e-05)
(0.98571528 6.4831715e-21 3.2537667e-05)
(0.98564966 0 3.2535174e-05)
(0.98558404 0 3.2532681e-05)
(0.98551842 0 3.253019e-05)
(0.98545281 0 3.2527699e-05)
(0.98538719 6.4391033e-21 3.2525209e-05)
(0.98532158 0 3.252272e-05)
(0.98525597 0 3.2520231e-05)
(0.98519036 0 3.2517741e-05)
(0.98512475 0 3.2515252e-05)
(0.98505915 -6.3950346e-21 3.2512763e-05)
(0.98499354 0 3.2510273e-05)
(0.98492794 6.377407e-21 3.2507783e-05)
(0.98486234 0 3.2505292e-05)
(0.98479674 0 3.25028e-05)
(0.98473114 6.3509654e-21 3.2500308e-05)
(0.98466555 0 3.2497815e-05)
(0.98459995 6.3333377e-21 3.2495321e-05)
(0.98453436 0 3.2492826e-05)
(0.98446877 0 3.2490331e-05)
(0.98440318 6.3068959e-21 3.2487835e-05)
(0.9843376 0 3.2485338e-05)
(0.98427201 6.2892679e-21 3.248284e-05)
(0.98420643 0 3.2480342e-05)
(0.98414084 0 3.2477843e-05)
(0.98407526 6.2628259e-21 3.2475343e-05)
(0.98400969 -6.2540119e-21 3.2472842e-05)
(0.98394411 0 3.2470341e-05)
(0.98387853 0 3.2467839e-05)
(0.98381296 0 3.2465337e-05)
(0.98374739 6.2187555e-21 3.2462833e-05)
(0.98368182 -6.2099414e-21 3.246033e-05)
(0.98361625 0 3.2457825e-05)
(0.98355068 0 3.2455321e-05)
(0.98348512 6.1834989e-21 3.2452817e-05)
(0.98341956 -6.1746847e-21 3.2450313e-05)
(0.98335399 -6.1658705e-21 3.244781e-05)
(0.98328844 6.1570563e-21 3.2445307e-05)
(0.98322288 0 3.2442805e-05)
(0.98315732 6.1394278e-21 3.2440305e-05)
(0.98309177 6.1306135e-21 3.2437805e-05)
(0.98302621 0 3.2435307e-05)
(0.98296066 6.1129849e-21 3.243281e-05)
(0.98289511 0 3.2430315e-05)
(0.98282957 6.0953562e-21 3.242782e-05)
(0.98276402 6.0865419e-21 3.2425327e-05)
(0.98269848 0 3.2422834e-05)
(0.98263293 6.0689132e-21 3.2420341e-05)
(0.98256739 -6.0600988e-21 3.2417848e-05)
(0.98250185 0 3.2415354e-05)
(0.98243632 6.0424699e-21 3.241286e-05)
(0.98237078 0 3.2410365e-05)
(0.98230525 0 3.2407869e-05)
(0.98223972 -6.0160265e-21 3.2405371e-05)
(0.98217419 0 3.2402871e-05)
(0.98210866 5.9983976e-21 3.240037e-05)
(0.98204313 5.989583e-21 3.2397868e-05)
(0.98197761 -5.9807685e-21 3.2395363e-05)
(0.98191208 5.971954e-21 3.2392858e-05)
(0.98184656 5.9631394e-21 3.2390351e-05)
(0.98178104 -5.9543248e-21 3.2387843e-05)
(0.98171552 5.9455102e-21 3.2385335e-05)
(0.98165001 5.9366956e-21 3.2382825e-05)
(0.98158449 -5.927881e-21 3.2380316e-05)
(0.98151898 5.9190664e-21 3.2377807e-05)
(0.98145347 -5.9102517e-21 3.2375297e-05)
(0.98138796 5.9014371e-21 3.2372788e-05)
(0.98132245 5.8926224e-21 3.2370279e-05)
(0.98125694 -5.8838077e-21 3.2367771e-05)
(0.98119144 5.874993e-21 3.2365263e-05)
(0.98112594 0 3.2362756e-05)
(0.98106044 -5.8573636e-21 3.236025e-05)
(0.98099494 5.8485488e-21 3.2357744e-05)
(0.98092944 0 3.235524e-05)
(0.98086394 -5.8309193e-21 3.2352736e-05)
(0.98079845 0 3.2350233e-05)
(0.98073296 5.8132897e-21 3.2347732e-05)
(0.98066747 -5.8044749e-21 3.2345231e-05)
(0.98060198 0 3.2342732e-05)
(0.98053649 -5.7868452e-21 3.2340235e-05)
(0.98047101 0 3.2337738e-05)
(0.98040552 5.7692155e-21 3.2335243e-05)
(0.98034004 -5.7604006e-21 3.2332748e-05)
(0.98027456 0 3.2330254e-05)
(0.98020908 5.7427708e-21 3.2327761e-05)
(0.98014361 -5.7339559e-21 3.2325268e-05)
(0.98007813 5.725141e-21 3.2322775e-05)
(0.98001266 0 3.2320281e-05)
(0.97994719 -5.7075111e-21 3.2317786e-05)
(0.97988172 5.6986961e-21 3.231529e-05)
(0.97981625 -5.6898811e-21 3.2312793e-05)
(0.97975078 5.6810661e-21 3.2310294e-05)
(0.97968532 0 3.2307793e-05)
(0.97961986 -5.6634361e-21 3.230529e-05)
(0.9795544 5.6546211e-21 3.2302786e-05)
(0.97948894 5.645806e-21 3.2300279e-05)
(0.97942348 -5.636991e-21 3.2297771e-05)
(0.97935802 0 3.2295262e-05)
(0.97929257 0 3.2292751e-05)
(0.97922712 -5.6105457e-21 3.229024e-05)
(0.97916167 5.6017306e-21 3.2287728e-05)
(0.97909622 5.5929155e-21 3.2285215e-05)
(0.97903077 -5.5841004e-21 3.2282703e-05)
(0.97896533 0 3.228019e-05)
(0.97889988 -5.5664701e-21 3.2277678e-05)
(0.97883444 5.5576549e-21 3.2275167e-05)
(0.978769 5.5488397e-21 3.2272655e-05)
(0.97870356 -5.5400245e-21 3.2270144e-05)
(0.97863813 0 3.2267633e-05)
(0.97857269 0 3.2265123e-05)
(0.97850726 -5.5135789e-21 3.2262613e-05)
(0.97844183 5.5047636e-21 3.2260103e-05)
(0.9783764 5.4959484e-21 3.2257593e-05)
(0.97831097 -5.4871331e-21 3.2255084e-05)
(0.97824554 0 3.2252575e-05)
(0.97818012 -5.4695026e-21 3.2250066e-05)
(0.9781147 5.4606873e-21 3.2247558e-05)
(0.97804928 5.451872e-21 3.2245051e-05)
(0.97798386 -5.4430567e-21 3.2242544e-05)
(0.97791844 0 3.2240039e-05)
(0.97785303 5.425426e-21 3.2237536e-05)
(0.97778761 -5.4166106e-21 3.2235034e-05)
(0.9777222 5.4077953e-21 3.2232533e-05)
(0.97765679 0 3.2230035e-05)
(0.97759138 -5.3901645e-21 3.2227538e-05)
(0.97752598 5.3813491e-21 3.2225043e-05)
(0.97746057 0 3.2222549e-05)
(0.97739517 -5.3637183e-21 3.2220057e-05)
(0.97732977 0 3.2217567e-05)
(0.97726437 -5.3460875e-21 3.2215077e-05)
(0.97719897 5.337272e-21 3.2212588e-05)
(0.97713357 0 3.2210101e-05)
(0.97706818 -5.3196411e-21 3.2207614e-05)
(0.97700278 0 3.2205127e-05)
(0.97693739 5.3020102e-21 3.2202641e-05)
(0.976872 -5.2931947e-21 3.2200155e-05)
(0.97680661 0 3.2197669e-05)
(0.97674123 5.2755636e-21 3.2195184e-05)
(0.97667584 -5.2667481e-21 3.2192699e-05)
(0.97661046 5.2579326e-21 3.2190215e-05)
(0.97654508 -5.249117e-21 3.218773e-05)
(0.9764797 0 3.2185247e-05)
(0.97641432 5.2314859e-21 3.2182763e-05)
(0.97634895 -5.2226704e-21 3.218028e-05)
(0.97628357 5.2138548e-21 3.2177798e-05)
(0.9762182 5.2050392e-21 3.2175315e-05)
(0.97615283 -5.1962236e-21 3.2172833e-05)
(0.97608746 5.187408e-21 3.2170351e-05)
(0.97602209 5.1785924e-21 3.2167869e-05)
(0.97595673 -5.1697767e-21 3.2165386e-05)
(0.97589136 5.1609611e-21 3.2162903e-05)
(0.975826 5.1521454e-21 3.216042e-05)
(0.97576064 -5.1433298e-21 3.2157936e-05)
(0.97569528 5.1345141e-21 3.2155452e-05)
(0.97562993 -5.1256985e-21 3.2152967e-05)
(0.97556457 5.1168828e-21 3.2150481e-05)
(0.97549922 5.1080671e-21 3.2147995e-05)
(0.97543386 -5.0992514e-21 3.2145508e-05)
(0.97536851 5.0904357e-21 3.2143021e-05)
(0.97530317 5.08162e-21 3.2140534e-05)
(0.97523782 -5.0728042e-21 3.2138046e-05)
(0.97517247 5.0639885e-21 3.2135559e-05)
(0.97510713 5.0551728e-21 3.2133071e-05)
(0.97504179 -5.046357e-21 3.2130583e-05)
(0.97497645 5.0375413e-21 3.2128094e-05)
(0.97491111 -5.0287255e-21 3.2125606e-05)
(0.97484577 5.0199097e-21 3.2123118e-05)
(0.97478044 5.0110939e-21 3.2120629e-05)
(0.97471511 -5.0022782e-21 3.2118139e-05)
(0.97464978 4.9934624e-21 3.211565e-05)
(0.97458445 0 3.2113159e-05)
(0.97451912 -4.9758307e-21 3.2110668e-05)
(0.97445379 4.9670149e-21 3.2108177e-05)
(0.97438847 0 3.2105684e-05)
(0.97432315 -4.9493832e-21 3.2103191e-05)
(0.97425782 0 3.2100698e-05)
(0.9741925 -4.9317516e-21 3.2098204e-05)
(0.97412719 4.9229357e-21 3.209571e-05)
(0.97406187 0 3.2093216e-05)
(0.97399656 -4.905304e-21 3.2090722e-05)
(0.97393125 0 3.2088228e-05)
(0.97386593 4.8876722e-21 3.2085734e-05)
(0.97380063 -4.8788563e-21 3.208324e-05)
(0.97373532 0 3.2080746e-05)
(0.97367001 4.8612245e-21 3.2078253e-05)
(0.97360471 -4.8524086e-21 3.2075759e-05)
(0.97353941 4.8435926e-21 3.2073266e-05)
(0.97347411 0 3.2070773e-05)
(0.97340881 -4.8259608e-21 3.206828e-05)
(0.97334351 4.8171448e-21 3.2065787e-05)
(0.97327822 -4.8083289e-21 3.2063293e-05)
(0.97321293 4.7995129e-21 3.2060799e-05)
(0.97314763 0 3.2058304e-05)
(0.97308234 -4.781881e-21 3.2055809e-05)
(0.97301706 4.773065e-21 3.2053314e-05)
(0.97295177 4.764249e-21 3.2050819e-05)
(0.97288649 -4.755433e-21 3.2048323e-05)
(0.9728212 0 3.2045827e-05)
(0.97275592 0 3.2043331e-05)
(0.97269064 -4.728985e-21 3.2040836e-05)
(0.97262537 4.720169e-21 3.2038341e-05)
(0.97256009 -4.711353e-21 3.2035846e-05)
(0.97249482 0 3.2033352e-05)
(0.97242954 0 3.2030858e-05)
(0.97236427 -4.6849049e-21 3.2028365e-05)
(0.972299 4.6760889e-21 3.2025873e-05)
(0.97223374 4.6672728e-21 3.202338e-05)
(0.97216847 -4.6584568e-21 3.2020888e-05)
(0.97210321 0 3.2018396e-05)
(0.97203795 0 3.2015904e-05)
(0.97197269 -4.6320086e-21 3.2013411e-05)
(0.97190743 4.6231925e-21 3.2010919e-05)
(0.97184217 4.6143764e-21 3.2008426e-05)
(0.97177692 -4.6055603e-21 3.2005933e-05)
(0.97171166 0 3.2003439e-05)
(0.97164641 -4.5879282e-21 3.2000946e-05)
(0.97158116 4.5791121e-21 3.1998452e-05)
(0.97151591 4.570296e-21 3.1995958e-05)
(0.97145067 -4.5614798e-21 3.1993465e-05)
(0.97138542 0 3.1990971e-05)
(0.97132018 4.5438476e-21 3.1988478e-05)
(0.97125494 -4.5350315e-21 3.1985986e-05)
(0.9711897 4.5262154e-21 3.1983494e-05)
(0.97112446 0 3.1981002e-05)
(0.97105923 -4.5085831e-21 3.1978511e-05)
(0.97099399 4.4997669e-21 3.1976021e-05)
(0.97092876 -4.4909508e-21 3.1973531e-05)
(0.97086353 4.4821346e-21 3.1971041e-05)
(0.9707983 0 3.1968552e-05)
(0.97073307 -4.4645023e-21 3.1966062e-05)
(0.97066785 4.4556862e-21 3.1963573e-05)
(0.97060263 0 3.1961083e-05)
(0.9705374 -4.4380538e-21 3.1958592e-05)
(0.97047218 0 3.1956102e-05)
(0.97040697 4.4204215e-21 3.1953611e-05)
(0.97034175 -4.4116053e-21 3.195112e-05)
(0.97027653 0 3.1948629e-05)
(0.97021132 4.3939729e-21 3.1946138e-05)
(0.97014611 -4.3851567e-21 3.1943646e-05)
(0.9700809 4.3763405e-21 3.1941156e-05)
(0.97001569 -4.3675243e-21 3.1938665e-05)
(0.96995049 0 3.1936175e-05)
(0.96988528 4.3498919e-21 3.1933685e-05)
(0.96982008 -4.3410757e-21 3.1931196e-05)
(0.96975488 4.3322595e-21 3.1928707e-05)
(0.96968968 4.3234432e-21 3.1926219e-05)
(0.96962448 -4.314627e-21 3.1923732e-05)
(0.96955929 4.3058108e-21 3.1921244e-05)
(0.96949409 4.2969946e-21 3.1918757e-05)
(0.9694289 -4.2881783e-21 3.191627e-05)
(0.96936371 4.2793621e-21 3.1913783e-05)
(0.96929852 -4.2705459e-21 3.1911296e-05)
(0.96923333 4.2617296e-21 3.1908809e-05)
(0.96916815 4.2529134e-21 3.1906321e-05)
(0.96910296 -4.2440971e-21 3.1903833e-05)
(0.96903778 4.2352809e-21 3.1901345e-05)
(0.9689726 4.2264646e-21 3.1898857e-05)
(0.96890742 -4.2176484e-21 3.1896369e-05)
(0.96884225 4.2088321e-21 3.1893881e-05)
(0.96877707 4.2000159e-21 3.1891394e-05)
(0.9687119 -4.1911996e-21 3.1888907e-05)
(0.96864673 4.1823833e-21 3.188642e-05)
(0.96858156 4.1735671e-21 3.1883934e-05)
(0.96851639 -4.1647508e-21 3.1881449e-05)
(0.96845122 4.1559345e-21 3.1878964e-05)
(0.96838606 -4.1471183e-21 3.187648e-05)
(0.9683209 4.138302e-21 3.1873997e-05)
(0.96825573 4.1294857e-21 3.1871514e-05)
(0.96819057 -4.1206694e-21 3.1869032e-05)
(0.96812542 4.1118531e-21 3.186655e-05)
(0.96806026 0 3.1864068e-05)
(0.96799511 -4.0942206e-21 3.1861586e-05)
(0.96792995 4.0854043e-21 3.1859104e-05)
(0.9678648 0 3.1856623e-05)
(0.96779965 -4.0677717e-21 3.1854141e-05)
(0.96773451 0 3.1851659e-05)
(0.96766936 -4.0501391e-21 3.1849178e-05)
(0.96760422 4.0413229e-21 3.1846697e-05)
(0.96753908 0 3.1844216e-05)
(0.96747394 -4.0236903e-21 3.1841736e-05)
(0.9674088 0 3.1839257e-05)
(0.96734366 4.0060577e-21 3.1836778e-05)
(0.96727853 -3.9972414e-21 3.18343e-05)
(0.96721339 0 3.1831822e-05)
(0.96714826 3.9796088e-21 3.1829346e-05)
(0.96708313 -3.9707925e-21 3.182687e-05)
(0.967018 3.9619762e-21 3.1824395e-05)
(0.96695287 0 3.182192e-05)
(0.96688775 -3.9443436e-21 3.1819446e-05)
(0.96682263 3.9355273e-21 3.1816972e-05)
(0.96675751 -3.926711e-21 3.1814499e-05)
(0.96669239 3.9178947e-21 3.1812025e-05)
(0.96662727 0 3.1809551e-05)
(0.96656215 -3.9002621e-21 3.1807078e-05)
(0.96649704 3.8914458e-21 3.1804604e-05)
(0.96643192 3.8826295e-21 3.180213e-05)
(0.96636681 -3.8738132e-21 3.1799657e-05)
(0.9663017 0 3.1797183e-05)
(0.9662366 0 3.179471e-05)
(0.96617149 -3.8473643e-21 3.1792237e-05)
(0.96610639 3.838548e-21 3.1789765e-05)
(0.96604128 -3.8297316e-21 3.1787293e-05)
(0.96597618 0 3.1784821e-05)
(0.96591108 0 3.178235e-05)
(0.96584599 -3.8032827e-21 3.1779879e-05)
(0.96578089 3.7944664e-21 3.1777409e-05)
(0.9657158 3.7856501e-21 3.1774938e-05)
(0.9656507 -3.7768338e-21 3.1772467e-05)
(0.96558561 0 3.1769996e-05)
(0.96552052 0 3.1767525e-05)
(0.96545544 -3.7503849e-21 3.1765053e-05)
(0.96539035 3.7415686e-21 3.1762581e-05)
(0.96532527 -3.7327524e-21 3.1760108e-05)
(0.96526018 0 3.1757634e-05)
(0.9651951 0 3.175516e-05)
(0.96513003 -3.7063035e-21 3.1752685e-05)
(0.96506495 3.6974872e-21 3.175021e-05)
(0.96499987 3.6886709e-21 3.1747734e-05)
(0.9649348 -3.6798546e-21 3.1745258e-05)
(0.96486973 0 3.1742782e-05)
(0.96480466 3.662222e-21 3.1740307e-05)
(0.96473959 -3.6534057e-21 3.1737831e-05)
(0.96467452 3.6445895e-21 3.1735356e-05)
(0.96460946 0 3.1732881e-05)
(0.9645444 -3.6269569e-21 3.1730406e-05)
(0.96447933 3.6181406e-21 3.1727931e-05)
(0.96441427 -3.6093243e-21 3.1725456e-05)
(0.96434922 3.6005081e-21 3.1722981e-05)
(0.96428416 0 3.1720506e-05)
(0.96421911 -3.5828755e-21 3.171803e-05)
(0.96415405 3.5740593e-21 3.1715553e-05)
(0.964089 0 3.1713076e-05)
(0.96402395 -3.5564267e-21 3.1710599e-05)
(0.96395891 0 3.1708121e-05)
(0.96389386 3.5387942e-21 3.1705642e-05)
(0.96382882 -3.529978e-21 3.1703163e-05)
(0.96376377 0 3.1700684e-05)
(0.96369873 -3.5123455e-21 3.1698205e-05)
(0.96363369 0 3.1695727e-05)
(0.96356866 3.494713e-21 3.1693249e-05)
(0.96350362 -3.4858967e-21 3.1690771e-05)
(0.96343859 0 3.1688295e-05)
(0.96337355 3.4682642e-21 3.1685819e-05)
(0.96330852 -3.459448e-21 3.1683343e-05)
(0.9632435 3.4506318e-21 3.1680868e-05)
(0.96317847 3.4418155e-21 3.1678393e-05)
(0.96311344 -3.4329993e-21 3.1675918e-05)
(0.96304842 3.4241831e-21 3.1673442e-05)
(0.9629834 3.4153669e-21 3.1670966e-05)
(0.96291838 -3.4065507e-21 3.1668488e-05)
(0.96285336 3.3977344e-21 3.1666009e-05)
(0.96278834 -3.3889182e-21 3.1663527e-05)
(0.96272333 3.380102e-21 3.1661044e-05)
(0.96265832 3.3712858e-21 3.1658559e-05)
(0.96259331 -3.3624696e-21 3.1656072e-05)
(0.9625283 3.3536534e-21 3.1653583e-05)
(0.96246329 3.3448372e-21 3.1651093e-05)
(0.96239828 -3.3360211e-21 3.1648602e-05)
(0.96233328 3.3272049e-21 3.164611e-05)
(0.96226828 3.3183887e-21 3.1643618e-05)
(0.96220328 -3.3095725e-21 3.1641126e-05)
(0.96213828 3.3007563e-21 3.1638635e-05)
(0.96207328 -3.2919402e-21 3.1636146e-05)
(0.96200828 3.283124e-21 3.1633658e-05)
(0.96194329 3.2743079e-21 3.1631171e-05)
(0.9618783 -3.2654917e-21 3.1628687e-05)
(0.96181331 3.2566755e-21 3.1626204e-05)
(0.96174832 3.2478594e-21 3.1623724e-05)
(0.96168333 -3.2390433e-21 3.1621245e-05)
(0.96161835 3.2302271e-21 3.1618768e-05)
(0.96155337 0 3.1616291e-05)
(0.96148838 -3.2125949e-21 3.1613816e-05)
(0.9614234 3.2037787e-21 3.161134e-05)
(0.96135843 0 3.1608864e-05)
(0.96129345 -3.1861465e-21 3.1606387e-05)
(0.96122848 0 3.1603908e-05)
(0.9611635 -3.1685143e-21 3.1601426e-05)
(0.96109853 0 3.1598942e-05)
(0.96103356 0 3.1596455e-05)
(0.9609686 0 3.1593964e-05)
(0.96090363 3.1332499e-21 3.1591469e-05)
(0.96083867 0 3.1588969e-05)
(0.9607737 0 3.1586465e-05)
(0.96070874 0 3.1583956e-05)
(0.96064378 0 3.1581442e-05)
(0.96057883 -3.0891696e-21 3.1578925e-05)
(0.96051387 0 3.1576403e-05)
(0.96044892 0 3.1573877e-05)
(0.96038397 0 3.1571348e-05)
(0.96031902 0 3.1568816e-05)
(0.96025407 -3.0450894e-21 3.1566283e-05)
(0.96018913 0 3.1563747e-05)
(0.96012418 3.0274573e-21 3.1561211e-05)
(0.96005924 -3.0186413e-21 3.1558674e-05)
(0.9599943 0 3.1556138e-05)
(0.95992936 0 3.1553602e-05)
(0.95986443 -2.9921933e-21 3.1551068e-05)
(0.95979949 2.9833773e-21 3.1548534e-05)
(0.95973456 0 3.1546003e-05)
(0.95966963 0 3.1543473e-05)
(0.9596047 0 3.1540945e-05)
(0.95953977 -2.9481135e-21 3.153842e-05)
(0.95947485 2.9392975e-21 3.1535897e-05)
(0.95940992 0 3.1533376e-05)
(0.959345 0 3.1530859e-05)
(0.95928008 0 3.1528344e-05)
(0.95921516 0 3.1525833e-05)
(0.95915025 0 3.1523325e-05)
(0.95908533 0 3.1520822e-05)
(0.95902042 2.877586e-21 3.1518323e-05)
(0.95895551 -2.8687701e-21 3.1515828e-05)
(0.9588906 0 3.1513339e-05)
(0.95882569 0 3.1510855e-05)
(0.95876079 0 3.1508377e-05)
(0.95869588 2.8335066e-21 3.1505905e-05)
(0.95863098 -2.8246907e-21 3.1503439e-05)
(0.95856608 0 3.1500978e-05)
(0.95850118 0 3.1498523e-05)
(0.95843629 -2.7982432e-21 3.1496074e-05)
(0.95837139 2.7894274e-21 3.149363e-05)
(0.9583065 0 3.1491191e-05)
(0.9582416 -2.7717957e-21 3.1488756e-05)
(0.95817671 0 3.1486324e-05)
(0.95811183 -2.7541641e-21 3.1483896e-05)
(0.95804694 2.7453483e-21 3.1481471e-05)
(0.95798205 0 3.1479048e-05)
(0.95791717 -2.7277168e-21 3.1476626e-05)
(0.95785229 0 3.1474206e-05)
(0.95778741 0 3.1471786e-05)
(0.95772253 0 3.1469367e-05)
(0.95765765 0 3.1466948e-05)
(0.95759278 2.683638e-21 3.146453e-05)
(0.9575279 0 3.146211e-05)
(0.95746303 0 3.1459691e-05)
(0.95739816 0 3.145727e-05)
(0.95733329 -2.6483752e-21 3.1454849e-05)
(0.95726842 2.6395595e-21 3.1452426e-05)
(0.95720356 0 3.1450002e-05)
(0.95713869 0 3.1447577e-05)
(0.95707383 0 3.1445149e-05)
(0.95700897 -2.6042968e-21 3.144272e-05)
(0.95694411 2.5954812e-21 3.1440288e-05)
(0.95687925 0 3.1437854e-05)
(0.9568144 -2.5778499e-21 3.1435418e-05)
(0.95674954 0 3.1432979e-05)
(0.95668469 0 3.1430538e-05)
(0.95661984 -2.5514031e-21 3.1428094e-05)
(0.95655499 0 3.1425647e-05)
(0.95649014 -2.5337719e-21 3.1423198e-05)
(0.9564253 0 3.1420746e-05)
(0.95636045 0 3.1418292e-05)
(0.95629561 -2.5073253e-21 3.1415836e-05)
(0.95623077 0 3.1413377e-05)
(0.95616593 2.4896942e-21 3.1410917e-05)
(0.95610109 0 3.1408455e-05)
(0.95603626 0 3.1405991e-05)
(0.95597142 0 3.1403525e-05)
(0.95590659 0 3.1401058e-05)
(0.95584176 2.4456167e-21 3.1398589e-05)
(0.95577693 0 3.1396119e-05)
(0.9557121 -2.4279858e-21 3.1393647e-05)
(0.95564728 0 3.1391174e-05)
(0.95558246 0 3.1388699e-05)
(0.95551763 2.4015394e-21 3.1386223e-05)
(0.95545281 0 3.1383746e-05)
(0.955388 -2.3839086e-21 3.1381268e-05)
(0.95532318 0 3.1378788e-05)
(0.95525837 0 3.1376308e-05)
(0.95519355 -2.3574625e-21 3.1373827e-05)
(0.95512874 0 3.1371345e-05)
(0.95506393 2.3398317e-21 3.1368864e-05)
(0.95499912 -2.3310164e-21 3.1366382e-05)
(0.95493432 0 3.13639e-05)
(0.95486951 -2.3133858e-21 3.1361419e-05)
(0.95480471 0 3.1358938e-05)
(0.95473991 2.2957551e-21 3.1356457e-05)
(0.95467511 -2.2869399e-21 3.1353977e-05)
(0.95461032 0 3.1351497e-05)
(0.95454552 0 3.1349018e-05)
(0.95448073 0 3.1346539e-05)
(0.95441594 2.2516788e-21 3.134406e-05)
(0.95435115 0 3.1341581e-05)
(0.95428636 0 3.1339102e-05)
(0.95422157 0 3.1336624e-05)
(0.95415679 0 3.1334145e-05)
(0.954092 -2.2076028e-21 3.1331666e-05)
(0.95402722 0 3.1329188e-05)
(0.95396244 0 3.1326709e-05)
(0.95389767 0 3.1324231e-05)
(0.95383289 0 3.1321754e-05)
(0.95376812 -2.1635271e-21 3.1319277e-05)
(0.95370334 0 3.13168e-05)
(0.95363857 2.1458969e-21 3.1314325e-05)
(0.9535738 -2.1370818e-21 3.131185e-05)
(0.95350904 0 3.1309377e-05)
(0.95344427 0 3.1306904e-05)
(0.95337951 -2.1106366e-21 3.1304432e-05)
(0.95331474 2.1018216e-21 3.1301961e-05)
(0.95324998 -2.0930066e-21 3.1299491e-05)
(0.95318523 0 3.1297021e-05)
(0.95312047 0 3.1294551e-05)
(0.95305571 -2.0665616e-21 3.1292082e-05)
(0.95299096 2.0577466e-21 3.1289613e-05)
(0.95292621 0 3.1287143e-05)
(0.95286146 0 3.1284674e-05)
(0.95279671 0 3.1282204e-05)
(0.95273197 0 3.1279735e-05)
(0.95266722 0 3.1277265e-05)
(0.95260248 0 3.1274795e-05)
(0.95253774 1.9960422e-21 3.1272326e-05)
(0.952473 -1.9872273e-21 3.1269857e-05)
(0.95240826 0 3.1267388e-05)
(0.95234353 0 3.126492e-05)
(0.95227879 0 3.1262452e-05)
(0.95221406 1.951968e-21 3.1259986e-05)
(0.95214933 -1.9431532e-21 3.125752e-05)
(0.9520846 0 3.1255054e-05)
(0.95201987 0 3.1252589e-05)
(0.95195515 -1.9167089e-21 3.1250125e-05)
(0.95189042 1.9078942e-21 3.124766e-05)
(0.9518257 0 3.1245196e-05)
(0.95176098 -1.8902648e-21 3.1242732e-05)
(0.95169626 0 3.1240268e-05)
(0.95163155 -1.8726354e-21 3.1237803e-05)
(0.95156683 1.8638207e-21 3.1235339e-05)
(0.95150212 0 3.1232873e-05)
(0.95143741 -1.8461914e-21 3.1230408e-05)
(0.9513727 0 3.1227942e-05)
(0.95130799 0 3.1225476e-05)
(0.95124328 0 3.1223009e-05)
(0.95117858 0 3.1220543e-05)
(0.95111388 1.8021185e-21 3.1218077e-05)
(0.95104918 0 3.1215612e-05)
(0.95098448 0 3.1213147e-05)
(0.95091978 0 3.1210682e-05)
(0.95085508 -1.7668604e-21 3.1208218e-05)
(0.95079039 1.7580459e-21 3.1205755e-05)
(0.9507257 0 3.1203292e-05)
(0.95066101 0 3.1200829e-05)
(0.95059632 0 3.1198367e-05)
(0.95053163 -1.7227881e-21 3.1195905e-05)
(0.95046695 1.7139737e-21 3.1193442e-05)
(0.95040226 0 3.119098e-05)
(0.95033758 -1.6963449e-21 3.1188517e-05)
(0.9502729 0 3.1186053e-05)
(0.95020822 0 3.118359e-05)
(0.95014354 -1.6699019e-21 3.1181125e-05)
(0.95007887 0 3.1178661e-05)
(0.9500142 -1.6522733e-21 3.1176196e-05)
(0.94994952 0 3.1173731e-05)
(0.94988486 0 3.1171266e-05)
(0.94982019 -1.6258305e-21 3.1168801e-05)
(0.94975552 0 3.1166337e-05)
(0.94969086 1.608202e-21 3.1163873e-05)
(0.94962619 0 3.1161409e-05)
(0.94956153 0 3.1158946e-05)
(0.94949687 0 3.1156483e-05)
(0.94943222 0 3.1154021e-05)
(0.94936756 1.5641312e-21 3.1151559e-05)
(0.94930291 0 3.1149098e-05)
(0.94923825 0 3.1146636e-05)
(0.9491736 0 3.1144174e-05)
(0.94910895 0 3.1141712e-05)
(0.94904431 1.5200607e-21 3.113925e-05)
(0.94897966 0 3.1136787e-05)
(0.94891502 -1.5024327e-21 3.1134324e-05)
(0.94885038 0 3.113186e-05)
(0.94878574 0 3.1129396e-05)
(0.9487211 -1.4759907e-21 3.1126931e-05)
(0.94865646 0 3.1124467e-05)
(0.94859183 1.4583628e-21 3.1122002e-05)
(0.94852719 -1.4495489e-21 3.1119538e-05)
(0.94846256 0 3.1117073e-05)
(0.94839793 -1.4319211e-21 3.1114609e-05)
(0.94833331 0 3.1112146e-05)
(0.94826868 1.4142934e-21 3.1109683e-05)
(0.94820405 -1.4054796e-21 3.110722e-05)
(0.94813943 0 3.1104758e-05)
(0.94807481 0 3.1102296e-05)
(0.94801019 0 3.1099834e-05)