/*--------------------------------*- C++ -*----------------------------------*\
  =========                 |
  \\      /  F ield         | OpenFOAM: The Open Source CFD Toolbox
   \\    /   O peration     | Website:  https://openfoam.org
    \\  /    A nd           | Version:  6
     \\/     M anipulation  |
\*---------------------------------------------------------------------------*/
FoamFile
{
    version     2.0;
    format      ascii;
    class       volScalarField;
    location    "10000";
    object      p;
}
// * * * * * * * * * * * * * * * * * * * * * * * * * * * * * * * * * * * * * //

dimensions      [0 2 -2 0 0 0 0];

internalField   nonuniform List<scalar> 
250
(
26460598
25720873
25270701
24712362
24195003
23661949
23134671
22605028
22076106
21546734
21017356
20487803
19958139
19428339
18898412
18368355
17838168
17307850
16777402
16246823
15716112
15185270
14654296
14123189
13591951
13060579
12529074
11997435
11465663
10933757
10401716
9869540.2
9337229.4
8804783.2
8272201.2
7739483.1
7206628.6
6673637.3
6140508.9
5607243.1
5073839.7
4540297.8
4006618.5
3472797.7
2938845.1
2404733.8
1870533.5
1336059.4
801797.96
266469.57
26456860
25722359
25270073
24712595
24194916
23661983
23134660
22605034
22076105
21546736
21017357
20487805
19958140
19428341
18898414
18368356
17838169
17307851
16777403
16246824
15716113
15185271
14654297
14123191
13591952
13060580
12529075
11997437
11465665
10933758
10401717
9869541.6
9337230.8
8804784.5
8272202.5
7739484.4
7206629.9
6673638.6
6140510.2
5607244.4
5073841
4540299.1
4006619.8
3472799
2938846.3
2404735.4
1870534.1
1336062.6
801794.03
266481.03
26450840
25723666
25269483
24712813
24194836
23662017
23134651
22605041
22076106
21546739
21017359
20487807
19958143
19428343
18898416
18368359
17838172
17307854
16777406
16246826
15716116
15185274
14654300
14123193
13591954
13060583
12529078
11997439
11465667
10933761
10401720
9869544
9337233.2
8804787
8272205
7739486.8
7206632.3
6673641
6140512.7
5607246.9
5073843.4
4540301.5
4006622.2
3472801.5
2938848.6
2404738.1
1870535.9
1336066.7
801791.4
266494.2
26441169
25725304
25268752
24713086
24194739
23662060
23134641
22605051
22076109
21546744
21017364
20487812
19958147
19428348
18898421
18368363
17838176
17307859
16777410
16246831
15716120
15185278
14654304
14123198
13591959
13060587
12529082
11997444
11465672
10933765
10401724
9869548.7
9337237.9
8804791.6
8272209.6
7739491.5
7206637
6673645.7
6140517.4
5607251.5
5073848.1
4540306.2
4006626.9
3472806.2
2938853.2
2404743.1
1870539.8
1336073.5
801789.76
266513.41
26429701
25726698
25268125
24713327
24194658
23662102
23134636
22605064
22076115
21546753
21017372
20487820
19958156
19428356
18898429
18368372
17838184
17307867
16777419
16246839
15716129
15185287
14654312
14123206
13591967
13060595
12529091
11997452
11465680
10933773
10401733
9869556.9
9337246.1
8804799.9
8272217.9
7739499.7
7206645.2
6673653.9
6140525.6
5607259.8
5073856.3
4540314.4
4006635.1
3472814.5
2938861.3
2404751.5
1870547.3
1336083.5
801792.6
266536.19
)
;

boundaryField
{
    inlet
    {
        type            fixedFluxPressure;
        gradient        uniform 0;
        value           nonuniform List<scalar> 5(26460598 26456860 26450840 26441169 26429701);
    }
    outlet
    {
        type            totalPressure;
        rho             rho;
        psi             none;
        gamma           1;
        p0              uniform 0;
        value           uniform 0;
    }
    walls
    {
        type            fixedFluxPressure;
        gradient        uniform 0;
        value           nonuniform List<scalar> 
50
(
26429701
25726698
25268125
24713327
24194658
23662102
23134636
22605064
22076115
21546753
21017372
20487820
19958156
19428356
18898429
18368372
17838184
17307867
16777419
16246839
15716129
15185287
14654312
14123206
13591967
13060595
12529091
11997452
11465680
10933773
10401733
9869556.9
9337246.1
8804799.9
8272217.9
7739499.7
7206645.2
6673653.9
6140525.6
5607259.8
5073856.3
4540314.4
4006635.1
3472814.5
2938861.3
2404751.5
1870547.3
1336083.5
801792.6
266536.19
)
;
    }
    centreline
    {
        type            symmetryPlane;
    }
    frontAndBack
    {
        type            empty;
    }
}


// ************************************************************************* //
